<?xml version="1.0" encoding="UTF-8"?>

<!-- generated on 12/10/20 18:42:10 by Eclipse SUMO Version 1.6.0
<configuration xmlns:xsi="http://www.w3.org/2001/XMLSchema-instance" xsi:noNamespaceSchemaLocation="http://sumo.dlr.de/xsd/sumoConfiguration.xsd">

    <input>
        <net-file value="test.net.xml"/>
        <route-files value="trips.trips.xml"/>
        <additional-files value="map.poly.xml,light_control.add.xml"/>
    </input>

    <output>
        <tripinfo-output value="tripinfo.xml"/>
    </output>

    <processing>
        <tls.actuated.show-detectors value="true"/>
    </processing>

    <traci_server>
        <remote-port value="63166"/>
    </traci_server>

</configuration>
-->

<tripinfos xmlns:xsi="http://www.w3.org/2001/XMLSchema-instance" xsi:noNamespaceSchemaLocation="http://sumo.dlr.de/xsd/tripinfo_file.xsd">
    <tripinfo id="5" depart="5.00" departLane="29240869#0_0" departPos="5.10" departSpeed="0.00" departDelay="0.00" arrival="26.00" arrivalLane="-29047356#3_0" arrivalPos="71.95" arrivalSpeed="11.10" duration="21.00" routeLength="172.38" waitingTime="0.00" waitingCount="0" stopTime="0.00" timeLoss="4.90" rerouteNo="1" devices="tripinfo_5 routing_5" vType="DEFAULT_VEHTYPE" speedFactor="0.83" vaporized=""/>
    <tripinfo id="23" depart="23.00" departLane="29047128_0" departPos="5.10" departSpeed="0.00" departDelay="0.00" arrival="33.00" arrivalLane="29047128_0" arrivalPos="96.07" arrivalSpeed="13.30" duration="10.00" routeLength="90.97" waitingTime="0.00" waitingCount="0" stopTime="0.00" timeLoss="3.32" rerouteNo="1" devices="tripinfo_23 routing_23" vType="DEFAULT_VEHTYPE" speedFactor="1.02" vaporized=""/>
    <tripinfo id="1" depart="1.00" departLane="-239696920_0" departPos="5.10" departSpeed="0.00" departDelay="0.00" arrival="45.00" arrivalLane="170115770#0_2" arrivalPos="54.74" arrivalSpeed="9.60" duration="44.00" routeLength="388.70" waitingTime="0.00" waitingCount="0" stopTime="0.00" timeLoss="15.44" rerouteNo="1" devices="tripinfo_1 routing_1" vType="DEFAULT_VEHTYPE" speedFactor="0.94" vaporized=""/>
    <tripinfo id="2" depart="3.00" departLane="143955381#1_0" departPos="5.10" departSpeed="0.00" departDelay="1.00" arrival="68.00" arrivalLane="143955381#1_0" arrivalPos="1609.54" arrivalSpeed="27.23" duration="65.00" routeLength="1604.44" waitingTime="0.00" waitingCount="0" stopTime="0.00" timeLoss="7.37" rerouteNo="1" devices="tripinfo_2 routing_2" vType="DEFAULT_VEHTYPE" speedFactor="1.01" vaporized=""/>
    <tripinfo id="13" depart="13.00" departLane="384311993#0_0" departPos="5.10" departSpeed="0.00" departDelay="0.00" arrival="70.00" arrivalLane="170115771#4_2" arrivalPos="97.57" arrivalSpeed="27.85" duration="57.00" routeLength="1150.22" waitingTime="0.00" waitingCount="0" stopTime="0.00" timeLoss="16.74" rerouteNo="1" devices="tripinfo_13 routing_13" vType="DEFAULT_VEHTYPE" speedFactor="1.05" vaporized=""/>
    <tripinfo id="14" depart="16.00" departLane="384311993#0_0" departPos="5.10" departSpeed="0.00" departDelay="2.00" arrival="77.00" arrivalLane="29024142#2_0" arrivalPos="81.53" arrivalSpeed="14.72" duration="61.00" routeLength="1042.73" waitingTime="0.00" waitingCount="0" stopTime="0.00" timeLoss="16.99" rerouteNo="1" devices="tripinfo_14 routing_14" vType="DEFAULT_VEHTYPE" speedFactor="1.12" vaporized=""/>
    <tripinfo id="0" depart="0.00" departLane="143955381#1_0" departPos="5.10" departSpeed="0.00" departDelay="0.00" arrival="79.00" arrivalLane="29047361#0_0" arrivalPos="30.51" arrivalSpeed="13.65" duration="79.00" routeLength="1727.55" waitingTime="0.00" waitingCount="0" stopTime="0.00" timeLoss="14.17" rerouteNo="1" devices="tripinfo_0 routing_0" vType="DEFAULT_VEHTYPE" speedFactor="1.06" vaporized=""/>
    <tripinfo id="26" depart="26.00" departLane="29240871_0" departPos="5.10" departSpeed="0.00" departDelay="0.00" arrival="81.00" arrivalLane="29047361#1_0" arrivalPos="170.89" arrivalSpeed="11.35" duration="55.00" routeLength="488.88" waitingTime="0.00" waitingCount="0" stopTime="0.00" timeLoss="11.06" rerouteNo="1" devices="tripinfo_26 routing_26" vType="DEFAULT_VEHTYPE" speedFactor="0.89" vaporized=""/>
    <tripinfo id="6" depart="6.00" departLane="143955381#4_0" departPos="5.10" departSpeed="0.00" departDelay="0.00" arrival="83.00" arrivalLane="13847053#2_0" arrivalPos="808.01" arrivalSpeed="28.76" duration="77.00" routeLength="1248.73" waitingTime="0.00" waitingCount="0" stopTime="0.00" timeLoss="22.87" rerouteNo="1" devices="tripinfo_6 routing_6" vType="DEFAULT_VEHTYPE" speedFactor="1.05" vaporized=""/>
    <tripinfo id="15" depart="15.00" departLane="-239696920_0" departPos="5.10" departSpeed="0.00" departDelay="0.00" arrival="87.00" arrivalLane="13847053#2_0" arrivalPos="808.01" arrivalSpeed="27.42" duration="72.00" routeLength="1236.08" waitingTime="0.00" waitingCount="0" stopTime="0.00" timeLoss="19.23" rerouteNo="1" devices="tripinfo_15 routing_15" vType="DEFAULT_VEHTYPE" speedFactor="0.99" vaporized=""/>
    <tripinfo id="20" depart="20.00" departLane="29288480#0_0" departPos="5.10" departSpeed="0.00" departDelay="0.00" arrival="90.00" arrivalLane="-29240864_0" arrivalPos="171.21" arrivalSpeed="12.17" duration="70.00" routeLength="753.79" waitingTime="0.00" waitingCount="0" stopTime="0.00" timeLoss="8.73" rerouteNo="1" devices="tripinfo_20 routing_20" vType="DEFAULT_VEHTYPE" speedFactor="0.94" vaporized=""/>
    <tripinfo id="37" depart="37.00" departLane="-29023952_0" departPos="5.10" departSpeed="0.00" departDelay="0.00" arrival="92.00" arrivalLane="13847053#2_2" arrivalPos="808.01" arrivalSpeed="31.48" duration="55.00" routeLength="1085.93" waitingTime="0.00" waitingCount="0" stopTime="0.00" timeLoss="14.30" rerouteNo="1" devices="tripinfo_37 routing_37" vType="DEFAULT_VEHTYPE" speedFactor="1.18" vaporized=""/>
    <tripinfo id="48" depart="48.00" departLane="-29240871_0" departPos="5.10" departSpeed="0.00" departDelay="0.00" arrival="93.00" arrivalLane="29047356#1_0" arrivalPos="34.95" arrivalSpeed="11.58" duration="45.00" routeLength="401.25" waitingTime="0.00" waitingCount="0" stopTime="0.00" timeLoss="17.01" rerouteNo="1" devices="tripinfo_48 routing_48" vType="DEFAULT_VEHTYPE" speedFactor="0.90" vaporized=""/>
    <tripinfo id="11" depart="14.00" departLane="24375222#0_0" departPos="5.10" departSpeed="0.00" departDelay="3.00" arrival="94.00" arrivalLane="-29288480#1_0" arrivalPos="33.88" arrivalSpeed="13.24" duration="80.00" routeLength="1687.22" waitingTime="0.00" waitingCount="0" stopTime="0.00" timeLoss="13.78" rerouteNo="1" devices="tripinfo_11 routing_11" vType="DEFAULT_VEHTYPE" speedFactor="1.03" vaporized=""/>
    <tripinfo id="49" depart="49.00" departLane="29023952_0" departPos="5.10" departSpeed="0.00" departDelay="0.00" arrival="104.00" arrivalLane="13847053#1_2" arrivalPos="58.08" arrivalSpeed="16.70" duration="55.00" routeLength="368.58" waitingTime="9.00" waitingCount="1" stopTime="0.00" timeLoss="29.84" rerouteNo="1" devices="tripinfo_49 routing_49" vType="DEFAULT_VEHTYPE" speedFactor="1.03" vaporized=""/>
    <tripinfo id="65" depart="65.00" departLane="29024142#0_0" departPos="5.10" departSpeed="0.00" departDelay="0.00" arrival="109.00" arrivalLane="-29024148_0" arrivalPos="176.55" arrivalSpeed="15.77" duration="44.00" routeLength="494.49" waitingTime="0.00" waitingCount="0" stopTime="0.00" timeLoss="11.93" rerouteNo="1" devices="tripinfo_65 routing_65" vType="DEFAULT_VEHTYPE" speedFactor="1.17" vaporized=""/>
    <tripinfo id="73" depart="73.00" departLane="-29240871_0" departPos="5.10" departSpeed="0.00" departDelay="0.00" arrival="109.00" arrivalLane="143957229#1_1" arrivalPos="72.05" arrivalSpeed="20.43" duration="36.00" routeLength="312.44" waitingTime="0.00" waitingCount="0" stopTime="0.00" timeLoss="16.14" rerouteNo="1" devices="tripinfo_73 routing_73" vType="DEFAULT_VEHTYPE" speedFactor="0.90" vaporized=""/>
    <tripinfo id="88" depart="88.00" departLane="29240869#0_0" departPos="5.10" departSpeed="0.00" departDelay="0.00" arrival="109.00" arrivalLane="143955383#3_0" arrivalPos="25.95" arrivalSpeed="13.56" duration="21.00" routeLength="174.75" waitingTime="0.00" waitingCount="0" stopTime="0.00" timeLoss="6.56" rerouteNo="1" devices="tripinfo_88 routing_88" vType="DEFAULT_VEHTYPE" speedFactor="1.02" vaporized=""/>
    <tripinfo id="17" depart="17.00" departLane="591497173_0" departPos="5.10" departSpeed="0.00" departDelay="0.00" arrival="116.00" arrivalLane="143957229#2_0" arrivalPos="1518.61" arrivalSpeed="25.45" duration="99.00" routeLength="1752.77" waitingTime="0.00" waitingCount="0" stopTime="0.00" timeLoss="18.40" rerouteNo="1" devices="tripinfo_17 routing_17" vType="DEFAULT_VEHTYPE" speedFactor="0.93" vaporized=""/>
    <tripinfo id="87" depart="89.00" departLane="-29024148_0" departPos="5.10" departSpeed="0.00" departDelay="2.00" arrival="118.00" arrivalLane="-29024324_0" arrivalPos="94.76" arrivalSpeed="14.33" duration="29.00" routeLength="294.64" waitingTime="0.00" waitingCount="0" stopTime="0.00" timeLoss="6.84" rerouteNo="1" devices="tripinfo_87 routing_87" vType="DEFAULT_VEHTYPE" speedFactor="1.04" vaporized=""/>
    <tripinfo id="94" depart="94.00" departLane="170115771#3_0" departPos="5.10" departSpeed="0.00" departDelay="0.00" arrival="119.00" arrivalLane="-29024142#1_0" arrivalPos="5.10" arrivalSpeed="12.27" duration="25.00" routeLength="259.49" waitingTime="0.00" waitingCount="0" stopTime="0.00" timeLoss="9.48" rerouteNo="1" devices="tripinfo_94 routing_94" vType="DEFAULT_VEHTYPE" speedFactor="0.96" vaporized=""/>
    <tripinfo id="44" depart="44.00" departLane="384311993#0_0" departPos="5.10" departSpeed="0.00" departDelay="0.00" arrival="120.00" arrivalLane="-32109005_0" arrivalPos="72.94" arrivalSpeed="13.58" duration="76.00" routeLength="1238.73" waitingTime="0.00" waitingCount="0" stopTime="0.00" timeLoss="21.42" rerouteNo="1" devices="tripinfo_44 routing_44" vType="DEFAULT_VEHTYPE" speedFactor="1.02" vaporized=""/>
    <tripinfo id="27" depart="27.00" departLane="-29047356#3_0" departPos="5.10" departSpeed="0.00" departDelay="0.00" arrival="121.00" arrivalLane="143957229#2_0" arrivalPos="1518.61" arrivalSpeed="22.49" duration="94.00" routeLength="1707.50" waitingTime="0.00" waitingCount="0" stopTime="0.00" timeLoss="10.44" rerouteNo="1" devices="tripinfo_27 routing_27" vType="DEFAULT_VEHTYPE" speedFactor="0.83" vaporized=""/>
    <tripinfo id="41" depart="41.00" departLane="143955381#1_0" departPos="5.10" departSpeed="0.00" departDelay="0.00" arrival="132.00" arrivalLane="29047356#3_0" arrivalPos="71.95" arrivalSpeed="12.73" duration="91.00" routeLength="1885.72" waitingTime="0.00" waitingCount="0" stopTime="0.00" timeLoss="14.65" rerouteNo="1" devices="tripinfo_41 routing_41" vType="DEFAULT_VEHTYPE" speedFactor="1.01" vaporized=""/>
    <tripinfo id="70" depart="70.00" departLane="143955381#1_0" departPos="5.10" departSpeed="0.00" departDelay="0.00" arrival="137.00" arrivalLane="143955381#1_1" arrivalPos="1609.54" arrivalSpeed="26.85" duration="67.00" routeLength="1604.44" waitingTime="0.00" waitingCount="0" stopTime="0.00" timeLoss="8.51" rerouteNo="1" devices="tripinfo_70 routing_70" vType="DEFAULT_VEHTYPE" speedFactor="1.00" vaporized=""/>
    <tripinfo id="54" depart="56.00" departLane="143955381#1_0" departPos="5.10" departSpeed="0.00" departDelay="2.00" arrival="139.00" arrivalLane="29240871_0" arrivalPos="84.05" arrivalSpeed="13.94" duration="83.00" routeLength="1821.34" waitingTime="0.00" waitingCount="0" stopTime="0.00" timeLoss="13.52" rerouteNo="1" devices="tripinfo_54 routing_54" vType="DEFAULT_VEHTYPE" speedFactor="1.04" vaporized=""/>
    <tripinfo id="100" depart="100.00" departLane="-591494101_0" departPos="5.10" departSpeed="0.00" departDelay="0.00" arrival="139.00" arrivalLane="29240869#1_0" arrivalPos="10.78" arrivalSpeed="10.64" duration="39.00" routeLength="160.58" waitingTime="14.00" waitingCount="1" stopTime="0.00" timeLoss="24.74" rerouteNo="1" devices="tripinfo_100 routing_100" vType="DEFAULT_VEHTYPE" speedFactor="0.98" vaporized=""/>
    <tripinfo id="21" depart="21.00" departLane="29024142#0_0" departPos="5.10" departSpeed="0.00" departDelay="0.00" arrival="141.00" arrivalLane="143957229#2_0" arrivalPos="1518.61" arrivalSpeed="25.15" duration="120.00" routeLength="2073.14" waitingTime="6.00" waitingCount="1" stopTime="0.00" timeLoss="26.39" rerouteNo="1" devices="tripinfo_21 routing_21" vType="DEFAULT_VEHTYPE" speedFactor="0.94" vaporized=""/>
    <tripinfo id="32" depart="32.00" departLane="143955381#3_0" departPos="5.10" departSpeed="0.00" departDelay="0.00" arrival="144.00" arrivalLane="170115770#3_0" arrivalPos="432.91" arrivalSpeed="11.64" duration="112.00" routeLength="733.94" waitingTime="43.00" waitingCount="1" stopTime="0.00" timeLoss="59.60" rerouteNo="1" devices="tripinfo_32 routing_32" vType="DEFAULT_VEHTYPE" speedFactor="1.13" vaporized=""/>
    <tripinfo id="125" depart="125.00" departLane="143957229#0_0" departPos="5.10" departSpeed="0.00" departDelay="0.00" arrival="150.00" arrivalLane="-143955383#3_0" arrivalPos="25.95" arrivalSpeed="11.95" duration="25.00" routeLength="235.83" waitingTime="0.00" waitingCount="0" stopTime="0.00" timeLoss="10.60" rerouteNo="1" devices="tripinfo_125 routing_125" vType="DEFAULT_VEHTYPE" speedFactor="1.07" vaporized=""/>
    <tripinfo id="57" depart="57.00" departLane="-23747533#2_0" departPos="5.10" departSpeed="0.00" departDelay="0.00" arrival="151.00" arrivalLane="-29024142#0_0" arrivalPos="113.28" arrivalSpeed="13.80" duration="94.00" routeLength="1042.92" waitingTime="0.00" waitingCount="0" stopTime="0.00" timeLoss="15.41" rerouteNo="1" devices="tripinfo_57 routing_57" vType="DEFAULT_VEHTYPE" speedFactor="1.00" vaporized=""/>
    <tripinfo id="106" depart="106.00" departLane="29288480#0_0" departPos="5.10" departSpeed="0.00" departDelay="0.00" arrival="151.00" arrivalLane="-29288480#1_0" arrivalPos="33.88" arrivalSpeed="11.86" duration="45.00" routeLength="449.05" waitingTime="1.00" waitingCount="1" stopTime="0.00" timeLoss="12.03" rerouteNo="1" devices="tripinfo_106 routing_106" vType="DEFAULT_VEHTYPE" speedFactor="1.02" vaporized=""/>
    <tripinfo id="138" depart="138.00" departLane="143955383#0_0" departPos="5.10" departSpeed="0.00" departDelay="0.00" arrival="158.00" arrivalLane="116269371_0" arrivalPos="63.99" arrivalSpeed="14.87" duration="20.00" routeLength="183.53" waitingTime="0.00" waitingCount="0" stopTime="0.00" timeLoss="6.40" rerouteNo="1" devices="tripinfo_138 routing_138" vType="DEFAULT_VEHTYPE" speedFactor="1.10" vaporized=""/>
    <tripinfo id="7" depart="7.00" departLane="-23747533#2_0" departPos="5.10" departSpeed="0.00" departDelay="0.00" arrival="159.00" arrivalLane="-29024148_0" arrivalPos="176.55" arrivalSpeed="12.26" duration="152.00" routeLength="1267.71" waitingTime="14.00" waitingCount="1" stopTime="0.00" timeLoss="43.15" rerouteNo="1" devices="tripinfo_7 routing_7" vType="DEFAULT_VEHTYPE" speedFactor="0.89" vaporized=""/>
    <tripinfo id="113" depart="113.00" departLane="-29047356#3_0" departPos="5.10" departSpeed="0.00" departDelay="0.00" arrival="159.00" arrivalLane="29047361#1_0" arrivalPos="170.89" arrivalSpeed="13.32" duration="46.00" routeLength="393.78" waitingTime="1.00" waitingCount="1" stopTime="0.00" timeLoss="15.63" rerouteNo="1" devices="tripinfo_113 routing_113" vType="DEFAULT_VEHTYPE" speedFactor="1.02" vaporized=""/>
    <tripinfo id="9" depart="9.00" departLane="384311993#0_0" departPos="5.10" departSpeed="0.00" departDelay="0.00" arrival="160.00" arrivalLane="-29288480#0_0" arrivalPos="367.16" arrivalSpeed="10.90" duration="151.00" routeLength="1947.04" waitingTime="0.00" waitingCount="0" stopTime="0.00" timeLoss="31.04" rerouteNo="1" devices="tripinfo_9 routing_9" vType="DEFAULT_VEHTYPE" speedFactor="0.86" vaporized=""/>
    <tripinfo id="28" depart="28.00" departLane="-29047361#1_0" departPos="5.10" departSpeed="0.00" departDelay="0.00" arrival="160.00" arrivalLane="170115770#3_0" arrivalPos="432.91" arrivalSpeed="9.32" duration="132.00" routeLength="1127.80" waitingTime="8.00" waitingCount="1" stopTime="0.00" timeLoss="35.46" rerouteNo="1" devices="tripinfo_28 routing_28" vType="DEFAULT_VEHTYPE" speedFactor="0.87" vaporized=""/>
    <tripinfo id="36" depart="36.00" departLane="143955381#1_0" departPos="5.10" departSpeed="0.00" departDelay="0.00" arrival="170.00" arrivalLane="-29288480#0_0" arrivalPos="367.16" arrivalSpeed="12.18" duration="134.00" routeLength="2423.86" waitingTime="0.00" waitingCount="0" stopTime="0.00" timeLoss="16.33" rerouteNo="1" devices="tripinfo_36 routing_36" vType="DEFAULT_VEHTYPE" speedFactor="0.93" vaporized=""/>
    <tripinfo id="22" depart="22.00" departLane="-29047356#1_0" departPos="5.10" departSpeed="0.00" departDelay="0.00" arrival="171.00" arrivalLane="13847053#2_0" arrivalPos="808.01" arrivalSpeed="31.85" duration="149.00" routeLength="1547.79" waitingTime="43.00" waitingCount="2" stopTime="0.00" timeLoss="83.14" rerouteNo="1" devices="tripinfo_22 routing_22" vType="DEFAULT_VEHTYPE" speedFactor="1.16" vaporized=""/>
    <tripinfo id="79" depart="81.00" departLane="143955381#1_0" departPos="5.10" departSpeed="0.00" departDelay="2.00" arrival="171.00" arrivalLane="29047361#1_0" arrivalPos="170.89" arrivalSpeed="14.17" duration="90.00" routeLength="1912.77" waitingTime="0.00" waitingCount="0" stopTime="0.00" timeLoss="14.93" rerouteNo="1" devices="tripinfo_79 routing_79" vType="DEFAULT_VEHTYPE" speedFactor="1.08" vaporized=""/>
    <tripinfo id="68" depart="68.00" departLane="24375222#0_0" departPos="5.10" departSpeed="0.00" departDelay="0.00" arrival="173.00" arrivalLane="619526004#0_0" arrivalPos="73.72" arrivalSpeed="7.10" duration="105.00" routeLength="1823.48" waitingTime="3.00" waitingCount="1" stopTime="0.00" timeLoss="37.01" rerouteNo="1" devices="tripinfo_68 routing_68" vType="DEFAULT_VEHTYPE" speedFactor="1.02" vaporized=""/>
    <tripinfo id="43" depart="44.00" departLane="143955381#1_0" departPos="5.10" departSpeed="0.00" departDelay="1.00" arrival="176.00" arrivalLane="-29288480#0_0" arrivalPos="367.16" arrivalSpeed="13.52" duration="132.00" routeLength="2423.86" waitingTime="0.00" waitingCount="0" stopTime="0.00" timeLoss="21.30" rerouteNo="1" devices="tripinfo_43 routing_43" vType="DEFAULT_VEHTYPE" speedFactor="0.99" vaporized=""/>
    <tripinfo id="84" depart="84.00" departLane="24375222#0_0" departPos="5.10" departSpeed="0.00" departDelay="0.00" arrival="177.00" arrivalLane="239696920_0" arrivalPos="85.10" arrivalSpeed="11.71" duration="93.00" routeLength="1676.40" waitingTime="0.00" waitingCount="0" stopTime="0.00" timeLoss="15.44" rerouteNo="1" devices="tripinfo_84 routing_84" vType="DEFAULT_VEHTYPE" speedFactor="0.88" vaporized=""/>
    <tripinfo id="96" depart="96.00" departLane="143955381#1_0" departPos="5.10" departSpeed="0.00" departDelay="0.00" arrival="178.00" arrivalLane="143955383#1_0" arrivalPos="4.66" arrivalSpeed="12.80" duration="82.00" routeLength="1747.28" waitingTime="0.00" waitingCount="0" stopTime="0.00" timeLoss="14.99" rerouteNo="1" devices="tripinfo_96 routing_96" vType="DEFAULT_VEHTYPE" speedFactor="0.98" vaporized=""/>
    <tripinfo id="4" depart="4.00" departLane="-23747533#2_0" departPos="5.10" departSpeed="0.00" departDelay="0.00" arrival="179.00" arrivalLane="29047356#3_0" arrivalPos="71.95" arrivalSpeed="13.47" duration="175.00" routeLength="1507.94" waitingTime="26.00" waitingCount="2" stopTime="0.00" timeLoss="73.01" rerouteNo="1" devices="tripinfo_4 routing_4" vType="DEFAULT_VEHTYPE" speedFactor="1.03" vaporized=""/>
    <tripinfo id="75" depart="77.00" departLane="24375222#0_0" departPos="5.10" departSpeed="0.00" departDelay="2.00" arrival="180.00" arrivalLane="-29288480#0_0" arrivalPos="367.16" arrivalSpeed="13.03" duration="103.00" routeLength="1968.15" waitingTime="0.00" waitingCount="0" stopTime="0.00" timeLoss="15.40" rerouteNo="1" devices="tripinfo_75 routing_75" vType="DEFAULT_VEHTYPE" speedFactor="1.02" vaporized=""/>
    <tripinfo id="109" depart="109.00" departLane="-23747533#2_0" departPos="5.10" departSpeed="0.00" departDelay="0.00" arrival="180.00" arrivalLane="-619526004#0_0" arrivalPos="73.72" arrivalSpeed="12.85" duration="71.00" routeLength="686.16" waitingTime="0.00" waitingCount="0" stopTime="0.00" timeLoss="9.74" rerouteNo="1" devices="tripinfo_109 routing_109" vType="DEFAULT_VEHTYPE" speedFactor="0.98" vaporized=""/>
    <tripinfo id="61" depart="61.00" departLane="24375222#0_0" departPos="5.10" departSpeed="0.00" departDelay="0.00" arrival="184.00" arrivalLane="13847053#2_0" arrivalPos="808.01" arrivalSpeed="22.40" duration="123.00" routeLength="2559.20" waitingTime="0.00" waitingCount="0" stopTime="0.00" timeLoss="13.73" rerouteNo="1" devices="tripinfo_61 routing_61" vType="DEFAULT_VEHTYPE" speedFactor="0.85" vaporized=""/>
    <tripinfo id="140" depart="142.00" departLane="29288480#0_0" departPos="5.10" departSpeed="0.00" departDelay="2.00" arrival="184.00" arrivalLane="-29288480#1_0" arrivalPos="33.88" arrivalSpeed="12.19" duration="42.00" routeLength="449.05" waitingTime="0.00" waitingCount="0" stopTime="0.00" timeLoss="11.67" rerouteNo="1" devices="tripinfo_140 routing_140" vType="DEFAULT_VEHTYPE" speedFactor="1.10" vaporized=""/>
    <tripinfo id="45" depart="46.00" departLane="143955381#1_0" departPos="5.10" departSpeed="0.00" departDelay="1.00" arrival="185.00" arrivalLane="170115770#3_0" arrivalPos="432.91" arrivalSpeed="9.86" duration="139.00" routeLength="2441.25" waitingTime="0.00" waitingCount="0" stopTime="0.00" timeLoss="14.98" rerouteNo="1" devices="tripinfo_45 routing_45" vType="DEFAULT_VEHTYPE" speedFactor="0.97" vaporized=""/>
    <tripinfo id="101" depart="101.00" departLane="143955381#1_0" departPos="5.10" departSpeed="0.00" departDelay="0.00" arrival="188.00" arrivalLane="-29047356#3_0" arrivalPos="71.95" arrivalSpeed="13.92" duration="87.00" routeLength="1789.66" waitingTime="0.00" waitingCount="0" stopTime="0.00" timeLoss="13.97" rerouteNo="1" devices="tripinfo_101 routing_101" vType="DEFAULT_VEHTYPE" speedFactor="1.01" vaporized=""/>
    <tripinfo id="42" depart="42.00" departLane="13847053#1_0" departPos="5.10" departSpeed="0.00" departDelay="0.00" arrival="195.00" arrivalLane="32109005_0" arrivalPos="72.94" arrivalSpeed="16.02" duration="153.00" routeLength="1388.18" waitingTime="13.00" waitingCount="1" stopTime="0.00" timeLoss="76.59" rerouteNo="1" devices="tripinfo_42 routing_42" vType="DEFAULT_VEHTYPE" speedFactor="1.17" vaporized=""/>
    <tripinfo id="116" depart="120.00" departLane="143955381#1_0" departPos="5.10" departSpeed="0.00" departDelay="4.00" arrival="197.00" arrivalLane="143955381#1_0" arrivalPos="1609.54" arrivalSpeed="22.03" duration="77.00" routeLength="1604.44" waitingTime="0.00" waitingCount="0" stopTime="0.00" timeLoss="7.63" rerouteNo="1" devices="tripinfo_116 routing_116" vType="DEFAULT_VEHTYPE" speedFactor="0.83" vaporized=""/>
    <tripinfo id="129" depart="129.00" departLane="143957229#1_0" departPos="5.10" departSpeed="0.00" departDelay="0.00" arrival="197.00" arrivalLane="143957229#2_0" arrivalPos="1518.61" arrivalSpeed="25.85" duration="68.00" routeLength="1594.90" waitingTime="0.00" waitingCount="0" stopTime="0.00" timeLoss="7.49" rerouteNo="0" devices="tripinfo_129 routing_129" vType="DEFAULT_VEHTYPE" speedFactor="0.95" vaporized=""/>
    <tripinfo id="134" depart="134.00" departLane="29288480#1_0" departPos="5.10" departSpeed="0.00" departDelay="0.00" arrival="201.00" arrivalLane="13847053#2_0" arrivalPos="808.01" arrivalSpeed="28.74" duration="67.00" routeLength="1141.23" waitingTime="2.00" waitingCount="1" stopTime="0.00" timeLoss="22.23" rerouteNo="1" devices="tripinfo_134 routing_134" vType="DEFAULT_VEHTYPE" speedFactor="1.06" vaporized=""/>
    <tripinfo id="130" depart="130.00" departLane="143955381#1_0" departPos="5.10" departSpeed="0.00" departDelay="0.00" arrival="203.00" arrivalLane="143955381#1_0" arrivalPos="1609.54" arrivalSpeed="23.62" duration="73.00" routeLength="1604.44" waitingTime="0.00" waitingCount="0" stopTime="0.00" timeLoss="8.19" rerouteNo="1" devices="tripinfo_130 routing_130" vType="DEFAULT_VEHTYPE" speedFactor="0.89" vaporized=""/>
    <tripinfo id="51" depart="51.00" departLane="29024142#0_0" departPos="5.10" departSpeed="0.00" departDelay="0.00" arrival="205.00" arrivalLane="170115770#1_1" arrivalPos="69.55" arrivalSpeed="10.55" duration="154.00" routeLength="1061.56" waitingTime="45.00" waitingCount="2" stopTime="0.00" timeLoss="81.52" rerouteNo="1" devices="tripinfo_51 routing_51" vType="DEFAULT_VEHTYPE" speedFactor="0.96" vaporized=""/>
    <tripinfo id="72" depart="73.00" departLane="143955381#1_0" departPos="5.10" departSpeed="0.00" departDelay="1.00" arrival="207.00" arrivalLane="-29288480#3_0" arrivalPos="30.76" arrivalSpeed="13.11" duration="134.00" routeLength="1951.88" waitingTime="29.00" waitingCount="1" stopTime="0.00" timeLoss="57.29" rerouteNo="1" devices="tripinfo_72 routing_72" vType="DEFAULT_VEHTYPE" speedFactor="1.00" vaporized=""/>
    <tripinfo id="93" depart="93.00" departLane="24375222#0_0" departPos="5.10" departSpeed="0.00" departDelay="0.00" arrival="208.00" arrivalLane="13847053#2_0" arrivalPos="808.01" arrivalSpeed="29.18" duration="115.00" routeLength="2559.20" waitingTime="0.00" waitingCount="0" stopTime="0.00" timeLoss="27.11" rerouteNo="1" devices="tripinfo_93 routing_93" vType="DEFAULT_VEHTYPE" speedFactor="1.06" vaporized=""/>
    <tripinfo id="63" depart="63.00" departLane="384311993#0_0" departPos="5.10" departSpeed="0.00" departDelay="0.00" arrival="212.00" arrivalLane="143957229#2_0" arrivalPos="1518.61" arrivalSpeed="23.68" duration="149.00" routeLength="2526.83" waitingTime="24.00" waitingCount="1" stopTime="0.00" timeLoss="42.01" rerouteNo="1" devices="tripinfo_63 routing_63" vType="DEFAULT_VEHTYPE" speedFactor="0.85" vaporized=""/>
    <tripinfo id="46" depart="46.00" departLane="170115772_0" departPos="5.10" departSpeed="0.00" departDelay="0.00" arrival="214.00" arrivalLane="143957229#2_1" arrivalPos="1518.61" arrivalSpeed="32.59" duration="168.00" routeLength="2619.75" waitingTime="6.00" waitingCount="2" stopTime="0.00" timeLoss="65.02" rerouteNo="1" devices="tripinfo_46 routing_46" vType="DEFAULT_VEHTYPE" speedFactor="1.18" vaporized=""/>
    <tripinfo id="3" depart="3.00" departLane="24375222#0_0" departPos="5.10" departSpeed="0.00" departDelay="0.00" arrival="216.00" arrivalLane="29240869#0_0" arrivalPos="45.48" arrivalSpeed="14.37" duration="213.00" routeLength="3100.13" waitingTime="3.00" waitingCount="1" stopTime="0.00" timeLoss="72.83" rerouteNo="1" devices="tripinfo_3 routing_3" vType="DEFAULT_VEHTYPE" speedFactor="1.08" vaporized=""/>
    <tripinfo id="137" depart="137.00" departLane="-32109005_0" departPos="5.10" departSpeed="0.00" departDelay="0.00" arrival="217.00" arrivalLane="143957229#1_1" arrivalPos="72.05" arrivalSpeed="19.86" duration="80.00" routeLength="413.68" waitingTime="20.00" waitingCount="2" stopTime="0.00" timeLoss="53.59" rerouteNo="1" devices="tripinfo_137 routing_137" vType="DEFAULT_VEHTYPE" speedFactor="0.87" vaporized=""/>
    <tripinfo id="186" depart="186.00" departLane="29024324_0" departPos="5.10" departSpeed="0.00" departDelay="0.00" arrival="219.00" arrivalLane="29024148_0" arrivalPos="176.55" arrivalSpeed="12.45" duration="33.00" routeLength="294.57" waitingTime="0.00" waitingCount="0" stopTime="0.00" timeLoss="8.86" rerouteNo="1" devices="tripinfo_186 routing_186" vType="DEFAULT_VEHTYPE" speedFactor="0.97" vaporized=""/>
    <tripinfo id="10" depart="11.00" departLane="24375222#0_0" departPos="5.10" departSpeed="0.00" departDelay="1.00" arrival="223.00" arrivalLane="29047361#1_0" arrivalPos="170.89" arrivalSpeed="13.92" duration="212.00" routeLength="3189.70" waitingTime="1.00" waitingCount="1" stopTime="0.00" timeLoss="67.73" rerouteNo="1" devices="tripinfo_10 routing_10" vType="DEFAULT_VEHTYPE" speedFactor="1.09" vaporized=""/>
    <tripinfo id="24" depart="24.00" departLane="384311993#0_0" departPos="5.10" departSpeed="0.00" departDelay="0.00" arrival="225.00" arrivalLane="170115772_0" arrivalPos="21.67" arrivalSpeed="15.58" duration="201.00" routeLength="2048.09" waitingTime="25.00" waitingCount="2" stopTime="0.00" timeLoss="93.59" rerouteNo="1" devices="tripinfo_24 routing_24" vType="DEFAULT_VEHTYPE" speedFactor="1.01" vaporized=""/>
    <tripinfo id="135" depart="135.00" departLane="-619526004#1_0" departPos="5.10" departSpeed="0.00" departDelay="0.00" arrival="228.00" arrivalLane="-29024324_0" arrivalPos="94.76" arrivalSpeed="12.25" duration="93.00" routeLength="714.04" waitingTime="9.00" waitingCount="2" stopTime="0.00" timeLoss="43.52" rerouteNo="1" devices="tripinfo_135 routing_135" vType="DEFAULT_VEHTYPE" speedFactor="0.96" vaporized=""/>
    <tripinfo id="161" depart="162.00" departLane="143955381#1_0" departPos="5.10" departSpeed="0.00" departDelay="1.00" arrival="228.00" arrivalLane="143955381#1_0" arrivalPos="1609.54" arrivalSpeed="27.51" duration="66.00" routeLength="1604.44" waitingTime="0.00" waitingCount="0" stopTime="0.00" timeLoss="7.78" rerouteNo="1" devices="tripinfo_161 routing_161" vType="DEFAULT_VEHTYPE" speedFactor="1.01" vaporized=""/>
    <tripinfo id="163" depart="165.00" departLane="143955381#1_0" departPos="5.10" departSpeed="0.00" departDelay="2.00" arrival="228.00" arrivalLane="143955381#1_1" arrivalPos="1609.54" arrivalSpeed="29.00" duration="63.00" routeLength="1604.44" waitingTime="0.00" waitingCount="0" stopTime="0.00" timeLoss="8.57" rerouteNo="1" devices="tripinfo_163 routing_163" vType="DEFAULT_VEHTYPE" speedFactor="1.07" vaporized=""/>