<?xml version="1.0" encoding="UTF-8"?>

<!-- generated on 10/23/20 01:52:07 by Eclipse SUMO GUI Version 1.6.0
<configuration xmlns:xsi="http://www.w3.org/2001/XMLSchema-instance" xsi:noNamespaceSchemaLocation="http://sumo.dlr.de/xsd/sumoConfiguration.xsd">

    <input>
        <net-file value="test.net.xml"/>
        <route-files value="trips.trips.xml"/>
        <additional-files value="map.poly.xml"/>
    </input>

    <output>
        <tripinfo-output value="tripinfo.xml"/>
    </output>

    <processing>
        <tls.actuated.show-detectors value="true"/>
    </processing>

    <traci_server>
        <remote-port value="50674"/>
    </traci_server>

</configuration>
-->

<tripinfos xmlns:xsi="http://www.w3.org/2001/XMLSchema-instance" xsi:noNamespaceSchemaLocation="http://sumo.dlr.de/xsd/tripinfo_file.xsd">
    <tripinfo id="5" depart="5.00" departLane="29240869#0_0" departPos="5.10" departSpeed="0.00" departDelay="0.00" arrival="26.00" arrivalLane="-29047356#3_0" arrivalPos="71.95" arrivalSpeed="11.10" duration="21.00" routeLength="172.38" waitingTime="0.00" waitingCount="0" stopTime="0.00" timeLoss="4.90" rerouteNo="1" devices="tripinfo_5 routing_5" vType="DEFAULT_VEHTYPE" speedFactor="0.83" vaporized=""/>
    <tripinfo id="23" depart="23.00" departLane="29047128_0" departPos="5.10" departSpeed="0.00" departDelay="0.00" arrival="33.00" arrivalLane="29047128_0" arrivalPos="96.07" arrivalSpeed="13.66" duration="10.00" routeLength="90.97" waitingTime="0.00" waitingCount="0" stopTime="0.00" timeLoss="3.30" rerouteNo="1" devices="tripinfo_23 routing_23" vType="DEFAULT_VEHTYPE" speedFactor="1.02" vaporized=""/>
    <tripinfo id="1" depart="1.00" departLane="-239696920_0" departPos="5.10" departSpeed="0.00" departDelay="0.00" arrival="45.00" arrivalLane="170115770#0_2" arrivalPos="54.74" arrivalSpeed="9.87" duration="44.00" routeLength="388.70" waitingTime="0.00" waitingCount="0" stopTime="0.00" timeLoss="15.51" rerouteNo="1" devices="tripinfo_1 routing_1" vType="DEFAULT_VEHTYPE" speedFactor="0.94" vaporized=""/>
    <tripinfo id="2" depart="3.00" departLane="143955381#1_0" departPos="5.10" departSpeed="0.00" departDelay="1.00" arrival="68.00" arrivalLane="143955381#1_0" arrivalPos="1609.54" arrivalSpeed="27.23" duration="65.00" routeLength="1604.44" waitingTime="0.00" waitingCount="0" stopTime="0.00" timeLoss="7.36" rerouteNo="1" devices="tripinfo_2 routing_2" vType="DEFAULT_VEHTYPE" speedFactor="1.01" vaporized=""/>
    <tripinfo id="13" depart="13.00" departLane="384311993#0_0" departPos="5.10" departSpeed="0.00" departDelay="0.00" arrival="70.00" arrivalLane="170115771#4_2" arrivalPos="97.57" arrivalSpeed="29.02" duration="57.00" routeLength="1150.22" waitingTime="0.00" waitingCount="0" stopTime="0.00" timeLoss="16.59" rerouteNo="1" devices="tripinfo_13 routing_13" vType="DEFAULT_VEHTYPE" speedFactor="1.05" vaporized=""/>
    <tripinfo id="14" depart="16.00" departLane="384311993#0_0" departPos="5.10" departSpeed="0.00" departDelay="2.00" arrival="76.00" arrivalLane="29024142#2_0" arrivalPos="81.53" arrivalSpeed="14.72" duration="60.00" routeLength="1042.73" waitingTime="0.00" waitingCount="0" stopTime="0.00" timeLoss="16.43" rerouteNo="1" devices="tripinfo_14 routing_14" vType="DEFAULT_VEHTYPE" speedFactor="1.12" vaporized=""/>
    <tripinfo id="0" depart="0.00" departLane="143955381#1_0" departPos="5.10" departSpeed="0.00" departDelay="0.00" arrival="79.00" arrivalLane="29047361#0_0" arrivalPos="30.51" arrivalSpeed="14.48" duration="79.00" routeLength="1727.55" waitingTime="0.00" waitingCount="0" stopTime="0.00" timeLoss="14.28" rerouteNo="1" devices="tripinfo_0 routing_0" vType="DEFAULT_VEHTYPE" speedFactor="1.06" vaporized=""/>
    <tripinfo id="26" depart="26.00" departLane="29240871_0" departPos="5.10" departSpeed="0.00" departDelay="0.00" arrival="81.00" arrivalLane="29047361#1_0" arrivalPos="170.89" arrivalSpeed="11.35" duration="55.00" routeLength="488.88" waitingTime="0.00" waitingCount="0" stopTime="0.00" timeLoss="11.13" rerouteNo="1" devices="tripinfo_26 routing_26" vType="DEFAULT_VEHTYPE" speedFactor="0.89" vaporized=""/>
    <tripinfo id="15" depart="15.00" departLane="-239696920_0" departPos="5.10" departSpeed="0.00" departDelay="0.00" arrival="85.00" arrivalLane="13847053#2_1" arrivalPos="808.01" arrivalSpeed="26.91" duration="70.00" routeLength="1236.08" waitingTime="0.00" waitingCount="0" stopTime="0.00" timeLoss="17.52" rerouteNo="1" devices="tripinfo_15 routing_15" vType="DEFAULT_VEHTYPE" speedFactor="0.99" vaporized=""/>
    <tripinfo id="20" depart="20.00" departLane="29288480#0_0" departPos="5.10" departSpeed="0.00" departDelay="0.00" arrival="90.00" arrivalLane="-29240864_0" arrivalPos="171.21" arrivalSpeed="12.06" duration="70.00" routeLength="753.79" waitingTime="0.00" waitingCount="0" stopTime="0.00" timeLoss="8.99" rerouteNo="1" devices="tripinfo_20 routing_20" vType="DEFAULT_VEHTYPE" speedFactor="0.94" vaporized=""/>
    <tripinfo id="37" depart="37.00" departLane="-29023952_0" departPos="5.10" departSpeed="0.00" departDelay="0.00" arrival="92.00" arrivalLane="13847053#2_2" arrivalPos="808.01" arrivalSpeed="32.27" duration="55.00" routeLength="1085.93" waitingTime="0.00" waitingCount="0" stopTime="0.00" timeLoss="14.85" rerouteNo="1" devices="tripinfo_37 routing_37" vType="DEFAULT_VEHTYPE" speedFactor="1.18" vaporized=""/>
    <tripinfo id="48" depart="48.00" departLane="-29240871_0" departPos="5.10" departSpeed="0.00" departDelay="0.00" arrival="93.00" arrivalLane="29047356#1_0" arrivalPos="34.95" arrivalSpeed="11.59" duration="45.00" routeLength="401.25" waitingTime="0.00" waitingCount="0" stopTime="0.00" timeLoss="16.56" rerouteNo="1" devices="tripinfo_48 routing_48" vType="DEFAULT_VEHTYPE" speedFactor="0.90" vaporized=""/>
    <tripinfo id="11" depart="14.00" departLane="24375222#0_0" departPos="5.10" departSpeed="0.00" departDelay="3.00" arrival="94.00" arrivalLane="-29288480#1_0" arrivalPos="33.88" arrivalSpeed="12.73" duration="80.00" routeLength="1687.22" waitingTime="0.00" waitingCount="0" stopTime="0.00" timeLoss="13.94" rerouteNo="1" devices="tripinfo_11 routing_11" vType="DEFAULT_VEHTYPE" speedFactor="1.03" vaporized=""/>
    <tripinfo id="49" depart="49.00" departLane="29023952_0" departPos="5.10" departSpeed="0.00" departDelay="0.00" arrival="104.00" arrivalLane="13847053#1_2" arrivalPos="58.08" arrivalSpeed="17.22" duration="55.00" routeLength="368.58" waitingTime="8.00" waitingCount="1" stopTime="0.00" timeLoss="29.55" rerouteNo="1" devices="tripinfo_49 routing_49" vType="DEFAULT_VEHTYPE" speedFactor="1.03" vaporized=""/>
    <tripinfo id="65" depart="65.00" departLane="29024142#0_0" departPos="5.10" departSpeed="0.00" departDelay="0.00" arrival="110.00" arrivalLane="-29024148_0" arrivalPos="176.55" arrivalSpeed="15.90" duration="45.00" routeLength="494.49" waitingTime="0.00" waitingCount="0" stopTime="0.00" timeLoss="12.49" rerouteNo="1" devices="tripinfo_65 routing_65" vType="DEFAULT_VEHTYPE" speedFactor="1.17" vaporized=""/>
    <tripinfo id="88" depart="88.00" departLane="29240869#0_0" departPos="5.10" departSpeed="0.00" departDelay="0.00" arrival="110.00" arrivalLane="143955383#3_0" arrivalPos="25.95" arrivalSpeed="13.04" duration="22.00" routeLength="174.75" waitingTime="0.00" waitingCount="0" stopTime="0.00" timeLoss="7.59" rerouteNo="1" devices="tripinfo_88 routing_88" vType="DEFAULT_VEHTYPE" speedFactor="1.02" vaporized=""/>
    <tripinfo id="17" depart="17.00" departLane="591497173_0" departPos="5.10" departSpeed="0.00" departDelay="0.00" arrival="116.00" arrivalLane="143957229#2_0" arrivalPos="1518.61" arrivalSpeed="25.15" duration="99.00" routeLength="1752.77" waitingTime="0.00" waitingCount="0" stopTime="0.00" timeLoss="18.29" rerouteNo="1" devices="tripinfo_17 routing_17" vType="DEFAULT_VEHTYPE" speedFactor="0.93" vaporized=""/>
    <tripinfo id="87" depart="89.00" departLane="-29024148_0" departPos="5.10" departSpeed="0.00" departDelay="2.00" arrival="118.00" arrivalLane="-29024324_0" arrivalPos="94.76" arrivalSpeed="14.06" duration="29.00" routeLength="294.64" waitingTime="0.00" waitingCount="0" stopTime="0.00" timeLoss="6.83" rerouteNo="1" devices="tripinfo_87 routing_87" vType="DEFAULT_VEHTYPE" speedFactor="1.04" vaporized=""/>
    <tripinfo id="94" depart="94.00" departLane="170115771#3_0" departPos="5.10" departSpeed="0.00" departDelay="0.00" arrival="119.00" arrivalLane="-29024142#1_0" arrivalPos="5.10" arrivalSpeed="12.08" duration="25.00" routeLength="259.49" waitingTime="0.00" waitingCount="0" stopTime="0.00" timeLoss="9.21" rerouteNo="1" devices="tripinfo_94 routing_94" vType="DEFAULT_VEHTYPE" speedFactor="0.96" vaporized=""/>
    <tripinfo id="27" depart="27.00" departLane="-29047356#3_0" departPos="5.10" departSpeed="0.00" departDelay="0.00" arrival="121.00" arrivalLane="143957229#2_0" arrivalPos="1518.61" arrivalSpeed="21.85" duration="94.00" routeLength="1707.50" waitingTime="0.00" waitingCount="0" stopTime="0.00" timeLoss="10.55" rerouteNo="1" devices="tripinfo_27 routing_27" vType="DEFAULT_VEHTYPE" speedFactor="0.83" vaporized=""/>
    <tripinfo id="100" depart="100.00" departLane="-591494101_0" departPos="5.10" departSpeed="0.00" departDelay="0.00" arrival="122.00" arrivalLane="29240869#1_0" arrivalPos="10.78" arrivalSpeed="6.93" duration="22.00" routeLength="160.58" waitingTime="0.00" waitingCount="0" stopTime="0.00" timeLoss="7.88" rerouteNo="1" devices="tripinfo_100 routing_100" vType="DEFAULT_VEHTYPE" speedFactor="0.98" vaporized=""/>
    <tripinfo id="41" depart="41.00" departLane="143955381#1_0" departPos="5.10" departSpeed="0.00" departDelay="0.00" arrival="136.00" arrivalLane="29047356#3_0" arrivalPos="71.95" arrivalSpeed="12.68" duration="95.00" routeLength="1885.72" waitingTime="1.00" waitingCount="1" stopTime="0.00" timeLoss="18.90" rerouteNo="1" devices="tripinfo_41 routing_41" vType="DEFAULT_VEHTYPE" speedFactor="1.01" vaporized=""/>
    <tripinfo id="70" depart="70.00" departLane="143955381#1_0" departPos="5.10" departSpeed="0.00" departDelay="0.00" arrival="136.00" arrivalLane="143955381#1_1" arrivalPos="1609.54" arrivalSpeed="26.97" duration="66.00" routeLength="1604.44" waitingTime="0.00" waitingCount="0" stopTime="0.00" timeLoss="8.17" rerouteNo="1" devices="tripinfo_70 routing_70" vType="DEFAULT_VEHTYPE" speedFactor="1.00" vaporized=""/>
    <tripinfo id="54" depart="56.00" departLane="143955381#1_0" departPos="5.10" departSpeed="0.00" departDelay="2.00" arrival="138.00" arrivalLane="29240871_0" arrivalPos="84.05" arrivalSpeed="13.72" duration="82.00" routeLength="1821.34" waitingTime="0.00" waitingCount="0" stopTime="0.00" timeLoss="12.86" rerouteNo="1" devices="tripinfo_54 routing_54" vType="DEFAULT_VEHTYPE" speedFactor="1.04" vaporized=""/>
    <tripinfo id="32" depart="32.00" departLane="143955381#3_0" departPos="5.10" departSpeed="0.00" departDelay="0.00" arrival="144.00" arrivalLane="170115770#3_0" arrivalPos="432.91" arrivalSpeed="12.48" duration="112.00" routeLength="733.94" waitingTime="39.00" waitingCount="1" stopTime="0.00" timeLoss="59.58" rerouteNo="1" devices="tripinfo_32 routing_32" vType="DEFAULT_VEHTYPE" speedFactor="1.13" vaporized=""/>
    <tripinfo id="73" depart="73.00" departLane="-29240871_0" departPos="5.10" departSpeed="0.00" departDelay="0.00" arrival="148.00" arrivalLane="143957229#1_1" arrivalPos="72.05" arrivalSpeed="20.29" duration="75.00" routeLength="312.44" waitingTime="37.00" waitingCount="1" stopTime="0.00" timeLoss="54.41" rerouteNo="1" devices="tripinfo_73 routing_73" vType="DEFAULT_VEHTYPE" speedFactor="0.90" vaporized=""/>
    <tripinfo id="106" depart="106.00" departLane="29288480#0_0" departPos="5.10" departSpeed="0.00" departDelay="0.00" arrival="148.00" arrivalLane="-29288480#1_0" arrivalPos="33.88" arrivalSpeed="11.84" duration="42.00" routeLength="449.05" waitingTime="0.00" waitingCount="0" stopTime="0.00" timeLoss="8.45" rerouteNo="1" devices="tripinfo_106 routing_106" vType="DEFAULT_VEHTYPE" speedFactor="1.02" vaporized=""/>
    <tripinfo id="125" depart="125.00" departLane="143957229#0_0" departPos="5.10" departSpeed="0.00" departDelay="0.00" arrival="150.00" arrivalLane="-143955383#3_0" arrivalPos="25.95" arrivalSpeed="11.60" duration="25.00" routeLength="235.83" waitingTime="0.00" waitingCount="0" stopTime="0.00" timeLoss="9.86" rerouteNo="1" devices="tripinfo_125 routing_125" vType="DEFAULT_VEHTYPE" speedFactor="1.07" vaporized=""/>
    <tripinfo id="57" depart="57.00" departLane="-23747533#2_0" departPos="5.10" departSpeed="0.00" departDelay="0.00" arrival="154.00" arrivalLane="-29024142#0_0" arrivalPos="113.28" arrivalSpeed="13.33" duration="97.00" routeLength="1042.92" waitingTime="0.00" waitingCount="0" stopTime="0.00" timeLoss="19.06" rerouteNo="1" devices="tripinfo_57 routing_57" vType="DEFAULT_VEHTYPE" speedFactor="1.00" vaporized=""/>
    <tripinfo id="138" depart="138.00" departLane="143955383#0_0" departPos="5.10" departSpeed="0.00" departDelay="0.00" arrival="159.00" arrivalLane="116269371_0" arrivalPos="63.99" arrivalSpeed="14.90" duration="21.00" routeLength="183.53" waitingTime="0.00" waitingCount="0" stopTime="0.00" timeLoss="7.17" rerouteNo="1" devices="tripinfo_138 routing_138" vType="DEFAULT_VEHTYPE" speedFactor="1.10" vaporized=""/>
    <tripinfo id="28" depart="28.00" departLane="-29047361#1_0" departPos="5.10" departSpeed="0.00" departDelay="0.00" arrival="160.00" arrivalLane="170115770#3_0" arrivalPos="432.91" arrivalSpeed="9.19" duration="132.00" routeLength="1127.80" waitingTime="11.00" waitingCount="1" stopTime="0.00" timeLoss="35.16" rerouteNo="1" devices="tripinfo_28 routing_28" vType="DEFAULT_VEHTYPE" speedFactor="0.87" vaporized=""/>
    <tripinfo id="7" depart="7.00" departLane="-23747533#2_0" departPos="5.10" departSpeed="0.00" departDelay="0.00" arrival="161.00" arrivalLane="-29024148_0" arrivalPos="176.55" arrivalSpeed="11.97" duration="154.00" routeLength="1267.71" waitingTime="14.00" waitingCount="1" stopTime="0.00" timeLoss="46.00" rerouteNo="1" devices="tripinfo_7 routing_7" vType="DEFAULT_VEHTYPE" speedFactor="0.89" vaporized=""/>
    <tripinfo id="21" depart="21.00" departLane="29024142#0_0" departPos="5.10" departSpeed="0.00" departDelay="0.00" arrival="163.00" arrivalLane="143957229#2_0" arrivalPos="1518.61" arrivalSpeed="25.86" duration="142.00" routeLength="2073.14" waitingTime="22.00" waitingCount="2" stopTime="0.00" timeLoss="48.82" rerouteNo="1" devices="tripinfo_21 routing_21" vType="DEFAULT_VEHTYPE" speedFactor="0.94" vaporized=""/>
    <tripinfo id="113" depart="113.00" departLane="-29047356#3_0" departPos="5.10" departSpeed="0.00" departDelay="0.00" arrival="165.00" arrivalLane="29047361#1_0" arrivalPos="170.89" arrivalSpeed="13.52" duration="52.00" routeLength="393.78" waitingTime="7.00" waitingCount="1" stopTime="0.00" timeLoss="21.13" rerouteNo="1" devices="tripinfo_113 routing_113" vType="DEFAULT_VEHTYPE" speedFactor="1.02" vaporized=""/>
    <tripinfo id="68" depart="68.00" departLane="24375222#0_0" departPos="5.10" departSpeed="0.00" departDelay="0.00" arrival="166.00" arrivalLane="619526004#0_0" arrivalPos="73.72" arrivalSpeed="8.97" duration="98.00" routeLength="1823.48" waitingTime="0.00" waitingCount="0" stopTime="0.00" timeLoss="29.29" rerouteNo="1" devices="tripinfo_68 routing_68" vType="DEFAULT_VEHTYPE" speedFactor="1.02" vaporized=""/>
    <tripinfo id="22" depart="22.00" departLane="-29047356#1_0" departPos="5.10" departSpeed="0.00" departDelay="0.00" arrival="171.00" arrivalLane="13847053#2_0" arrivalPos="808.01" arrivalSpeed="31.80" duration="149.00" routeLength="1547.79" waitingTime="41.00" waitingCount="2" stopTime="0.00" timeLoss="83.65" rerouteNo="1" devices="tripinfo_22 routing_22" vType="DEFAULT_VEHTYPE" speedFactor="1.16" vaporized=""/>
    <tripinfo id="79" depart="81.00" departLane="143955381#1_0" departPos="5.10" departSpeed="0.00" departDelay="2.00" arrival="172.00" arrivalLane="29047361#1_0" arrivalPos="170.89" arrivalSpeed="14.78" duration="91.00" routeLength="1912.77" waitingTime="0.00" waitingCount="0" stopTime="0.00" timeLoss="14.98" rerouteNo="1" devices="tripinfo_79 routing_79" vType="DEFAULT_VEHTYPE" speedFactor="1.08" vaporized=""/>
    <tripinfo id="6" depart="6.00" departLane="143955381#4_0" departPos="5.10" departSpeed="0.00" departDelay="0.00" arrival="174.00" arrivalLane="13847053#2_0" arrivalPos="808.01" arrivalSpeed="27.78" duration="168.00" routeLength="1248.73" waitingTime="84.00" waitingCount="3" stopTime="0.00" timeLoss="114.08" rerouteNo="1" devices="tripinfo_6 routing_6" vType="DEFAULT_VEHTYPE" speedFactor="1.05" vaporized=""/>
    <tripinfo id="84" depart="84.00" departLane="24375222#0_0" departPos="5.10" departSpeed="0.00" departDelay="0.00" arrival="176.00" arrivalLane="239696920_0" arrivalPos="85.10" arrivalSpeed="11.03" duration="92.00" routeLength="1676.40" waitingTime="0.00" waitingCount="0" stopTime="0.00" timeLoss="14.88" rerouteNo="1" devices="tripinfo_84 routing_84" vType="DEFAULT_VEHTYPE" speedFactor="0.88" vaporized=""/>
    <tripinfo id="75" depart="77.00" departLane="24375222#0_0" departPos="5.10" departSpeed="0.00" departDelay="2.00" arrival="180.00" arrivalLane="-29288480#0_0" arrivalPos="367.16" arrivalSpeed="14.03" duration="103.00" routeLength="1968.15" waitingTime="0.00" waitingCount="0" stopTime="0.00" timeLoss="14.93" rerouteNo="1" devices="tripinfo_75 routing_75" vType="DEFAULT_VEHTYPE" speedFactor="1.02" vaporized=""/>
    <tripinfo id="109" depart="109.00" departLane="-23747533#2_0" departPos="5.10" departSpeed="0.00" departDelay="0.00" arrival="181.00" arrivalLane="-619526004#0_0" arrivalPos="73.72" arrivalSpeed="13.12" duration="72.00" routeLength="686.16" waitingTime="0.00" waitingCount="0" stopTime="0.00" timeLoss="10.81" rerouteNo="1" devices="tripinfo_109 routing_109" vType="DEFAULT_VEHTYPE" speedFactor="0.98" vaporized=""/>
    <tripinfo id="61" depart="61.00" departLane="24375222#0_0" departPos="5.10" departSpeed="0.00" departDelay="0.00" arrival="182.00" arrivalLane="13847053#2_0" arrivalPos="808.01" arrivalSpeed="23.07" duration="121.00" routeLength="2559.20" waitingTime="0.00" waitingCount="0" stopTime="0.00" timeLoss="11.75" rerouteNo="1" devices="tripinfo_61 routing_61" vType="DEFAULT_VEHTYPE" speedFactor="0.85" vaporized=""/>
    <tripinfo id="140" depart="142.00" departLane="29288480#0_0" departPos="5.10" departSpeed="0.00" departDelay="2.00" arrival="183.00" arrivalLane="-29288480#1_0" arrivalPos="33.88" arrivalSpeed="11.37" duration="41.00" routeLength="449.05" waitingTime="0.00" waitingCount="0" stopTime="0.00" timeLoss="10.78" rerouteNo="1" devices="tripinfo_140 routing_140" vType="DEFAULT_VEHTYPE" speedFactor="1.10" vaporized=""/>
    <tripinfo id="101" depart="101.00" departLane="143955381#1_0" departPos="5.10" departSpeed="0.00" departDelay="0.00" arrival="188.00" arrivalLane="-29047356#3_0" arrivalPos="71.95" arrivalSpeed="13.92" duration="87.00" routeLength="1789.66" waitingTime="0.00" waitingCount="0" stopTime="0.00" timeLoss="14.19" rerouteNo="1" devices="tripinfo_101 routing_101" vType="DEFAULT_VEHTYPE" speedFactor="1.01" vaporized=""/>
    <tripinfo id="116" depart="120.00" departLane="143955381#1_0" departPos="5.10" departSpeed="0.00" departDelay="4.00" arrival="197.00" arrivalLane="143955381#1_0" arrivalPos="1609.54" arrivalSpeed="22.79" duration="77.00" routeLength="1604.44" waitingTime="0.00" waitingCount="0" stopTime="0.00" timeLoss="7.25" rerouteNo="1" devices="tripinfo_116 routing_116" vType="DEFAULT_VEHTYPE" speedFactor="0.83" vaporized=""/>
    <tripinfo id="129" depart="129.00" departLane="143957229#1_0" departPos="5.10" departSpeed="0.00" departDelay="0.00" arrival="197.00" arrivalLane="143957229#2_0" arrivalPos="1518.61" arrivalSpeed="26.09" duration="68.00" routeLength="1594.90" waitingTime="0.00" waitingCount="0" stopTime="0.00" timeLoss="7.53" rerouteNo="0" devices="tripinfo_129 routing_129" vType="DEFAULT_VEHTYPE" speedFactor="0.95" vaporized=""/>
    <tripinfo id="134" depart="134.00" departLane="29288480#1_0" departPos="5.10" departSpeed="0.00" departDelay="0.00" arrival="201.00" arrivalLane="13847053#2_1" arrivalPos="808.01" arrivalSpeed="29.12" duration="67.00" routeLength="1141.23" waitingTime="1.00" waitingCount="1" stopTime="0.00" timeLoss="22.27" rerouteNo="1" devices="tripinfo_134 routing_134" vType="DEFAULT_VEHTYPE" speedFactor="1.06" vaporized=""/>
    <tripinfo id="130" depart="130.00" departLane="143955381#1_0" departPos="5.10" departSpeed="0.00" departDelay="0.00" arrival="203.00" arrivalLane="143955381#1_0" arrivalPos="1609.54" arrivalSpeed="24.28" duration="73.00" routeLength="1604.44" waitingTime="0.00" waitingCount="0" stopTime="0.00" timeLoss="7.75" rerouteNo="1" devices="tripinfo_130 routing_130" vType="DEFAULT_VEHTYPE" speedFactor="0.89" vaporized=""/>
    <tripinfo id="93" depart="93.00" departLane="24375222#0_0" departPos="5.10" departSpeed="0.00" departDelay="0.00" arrival="210.00" arrivalLane="13847053#2_1" arrivalPos="808.01" arrivalSpeed="29.20" duration="117.00" routeLength="2559.20" waitingTime="0.00" waitingCount="0" stopTime="0.00" timeLoss="29.10" rerouteNo="1" devices="tripinfo_93 routing_93" vType="DEFAULT_VEHTYPE" speedFactor="1.06" vaporized=""/>
    <tripinfo id="107" depart="107.00" departLane="-29047361#1_0" departPos="5.10" departSpeed="0.00" departDelay="0.00" arrival="212.00" arrivalLane="143957229#2_0" arrivalPos="1518.61" arrivalSpeed="26.11" duration="105.00" routeLength="1957.75" waitingTime="0.00" waitingCount="0" stopTime="0.00" timeLoss="13.81" rerouteNo="1" devices="tripinfo_107 routing_107" vType="DEFAULT_VEHTYPE" speedFactor="0.97" vaporized=""/>
    <tripinfo id="186" depart="186.00" departLane="29024324_0" departPos="5.10" departSpeed="0.00" departDelay="0.00" arrival="217.00" arrivalLane="29024148_0" arrivalPos="176.55" arrivalSpeed="13.02" duration="31.00" routeLength="294.57" waitingTime="0.00" waitingCount="0" stopTime="0.00" timeLoss="6.49" rerouteNo="1" devices="tripinfo_186 routing_186" vType="DEFAULT_VEHTYPE" speedFactor="0.97" vaporized=""/>
    <tripinfo id="44" depart="44.00" departLane="384311993#0_0" departPos="5.10" departSpeed="0.00" departDelay="0.00" arrival="218.00" arrivalLane="-32109005_0" arrivalPos="72.94" arrivalSpeed="13.89" duration="174.00" routeLength="1238.73" waitingTime="87.00" waitingCount="2" stopTime="0.00" timeLoss="119.43" rerouteNo="1" devices="tripinfo_44 routing_44" vType="DEFAULT_VEHTYPE" speedFactor="1.02" vaporized=""/>
    <tripinfo id="161" depart="162.00" departLane="143955381#1_0" departPos="5.10" departSpeed="0.00" departDelay="1.00" arrival="228.00" arrivalLane="143955381#1_0" arrivalPos="1609.54" arrivalSpeed="26.80" duration="66.00" routeLength="1604.44" waitingTime="0.00" waitingCount="0" stopTime="0.00" timeLoss="8.06" rerouteNo="1" devices="tripinfo_161 routing_161" vType="DEFAULT_VEHTYPE" speedFactor="1.01" vaporized=""/>
    <tripinfo id="131" depart="131.00" departLane="24375222#0_0" departPos="5.10" departSpeed="0.00" departDelay="0.00" arrival="230.00" arrivalLane="-29288480#0_0" arrivalPos="367.16" arrivalSpeed="14.12" duration="99.00" routeLength="1968.15" waitingTime="0.00" waitingCount="0" stopTime="0.00" timeLoss="15.59" rerouteNo="1" devices="tripinfo_131 routing_131" vType="DEFAULT_VEHTYPE" speedFactor="1.07" vaporized=""/>
    <tripinfo id="135" depart="135.00" departLane="-619526004#1_0" departPos="5.10" departSpeed="0.00" departDelay="0.00" arrival="231.00" arrivalLane="-29024324_0" arrivalPos="94.76" arrivalSpeed="12.35" duration="96.00" routeLength="714.04" waitingTime="11.00" waitingCount="1" stopTime="0.00" timeLoss="46.58" rerouteNo="1" devices="tripinfo_135 routing_135" vType="DEFAULT_VEHTYPE" speedFactor="0.96" vaporized=""/>
    <tripinfo id="163" depart="165.00" departLane="143955381#1_0" departPos="5.10" departSpeed="0.00" departDelay="2.00" arrival="232.00" arrivalLane="143955381#1_1" arrivalPos="1609.54" arrivalSpeed="15.51" duration="67.00" routeLength="1604.44" waitingTime="0.00" waitingCount="0" stopTime="0.00" timeLoss="12.82" rerouteNo="1" devices="tripinfo_163 routing_163" vType="DEFAULT_VEHTYPE" speedFactor="1.07" vaporized=""/>
    <tripinfo id="176" depart="176.00" departLane="24375222#3_0" departPos="5.10" departSpeed="0.00" departDelay="0.00" arrival="234.00" arrivalLane="-29288480#0_0" arrivalPos="367.16" arrivalSpeed="14.69" duration="58.00" routeLength="629.88" waitingTime="2.00" waitingCount="1" stopTime="0.00" timeLoss="15.85" rerouteNo="1" devices="tripinfo_176 routing_176" vType="DEFAULT_VEHTYPE" speedFactor="1.11" vaporized=""/>
    <tripinfo id="151" depart="151.00" departLane="-29240869#3_0" departPos="5.10" departSpeed="0.00" departDelay="0.00" arrival="236.00" arrivalLane="143957229#2_0" arrivalPos="1518.61" arrivalSpeed="28.27" duration="85.00" routeLength="1785.55" waitingTime="0.00" waitingCount="0" stopTime="0.00" timeLoss="12.28" rerouteNo="1" devices="tripinfo_151 routing_151" vType="DEFAULT_VEHTYPE" speedFactor="1.03" vaporized=""/>
    <tripinfo id="209" depart="209.00" departLane="29240871_0" departPos="5.10" departSpeed="0.00" departDelay="0.00" arrival="239.00" arrivalLane="-32109005_0" arrivalPos="72.94" arrivalSpeed="12.43" duration="30.00" routeLength="239.14" waitingTime="0.00" waitingCount="0" stopTime="0.00" timeLoss="9.91" rerouteNo="1" devices="tripinfo_209 routing_209" vType="DEFAULT_VEHTYPE" speedFactor="0.98" vaporized=""/>
    <tripinfo id="171" depart="171.00" departLane="143955381#1_0" departPos="5.10" departSpeed="0.00" departDelay="0.00" arrival="240.00" arrivalLane="143955381#1_1" arrivalPos="1609.54" arrivalSpeed="18.56" duration="69.00" routeLength="1604.44" waitingTime="0.00" waitingCount="0" stopTime="0.00" timeLoss="11.66" rerouteNo="1" devices="tripinfo_171 routing_171" vType="DEFAULT_VEHTYPE" speedFactor="1.01" vaporized=""/>
    <tripinfo id="45" depart="46.00" departLane="143955381#1_0" departPos="5.10" departSpeed="0.00" departDelay="1.00" arrival="243.00" arrivalLane="170115770#3_0" arrivalPos="432.91" arrivalSpeed="10.66" duration="197.00" routeLength="2441.25" waitingTime="51.00" waitingCount="2" stopTime="0.00" timeLoss="73.63" rerouteNo="1" devices="tripinfo_45 routing_45" vType="DEFAULT_VEHTYPE" speedFactor="0.97" vaporized=""/>
    <tripinfo id="46" depart="46.00" departLane="170115772_0" departPos="5.10" departSpeed="0.00" departDelay="0.00" arrival="247.00" arrivalLane="143957229#2_1" arrivalPos="1518.61" arrivalSpeed="32.17" duration="201.00" routeLength="2619.75" waitingTime="26.00" waitingCount="3" stopTime="0.00" timeLoss="99.46" rerouteNo="1" devices="tripinfo_46 routing_46" vType="DEFAULT_VEHTYPE" speedFactor="1.18" vaporized=""/>
    <tripinfo id="60" depart="62.00" departLane="143955381#1_0" departPos="5.10" departSpeed="0.00" departDelay="2.00" arrival="249.00" arrivalLane="170115770#3_0" arrivalPos="432.91" arrivalSpeed="9.63" duration="187.00" routeLength="2441.25" waitingTime="31.00" waitingCount="1" stopTime="0.00" timeLoss="49.37" rerouteNo="1" devices="tripinfo_60 routing_60" vType="DEFAULT_VEHTYPE" speedFactor="0.88" vaporized=""/>
    <tripinfo id="53" depart="53.00" departLane="-32109003_0" departPos="5.10" departSpeed="0.00" departDelay="0.00" arrival="252.00" arrivalLane="143957229#2_0" arrivalPos="1518.61" arrivalSpeed="28.59" duration="199.00" routeLength="2814.48" waitingTime="8.00" waitingCount="1" stopTime="0.00" timeLoss="73.19" rerouteNo="1" devices="tripinfo_53 routing_53" vType="DEFAULT_VEHTYPE" speedFactor="1.04" vaporized=""/>
    <tripinfo id="190" depart="190.00" departLane="29288480#0_0" departPos="5.10" departSpeed="0.00" departDelay="0.00" arrival="252.00" arrivalLane="-29288480#0_0" arrivalPos="367.16" arrivalSpeed="13.23" duration="62.00" routeLength="733.98" waitingTime="0.00" waitingCount="0" stopTime="0.00" timeLoss="8.55" rerouteNo="0" devices="tripinfo_190 routing_190" vType="DEFAULT_VEHTYPE" speedFactor="1.00" vaporized=""/>
    <tripinfo id="169" depart="169.00" departLane="-29047361#1_0" departPos="5.10" departSpeed="0.00" departDelay="0.00" arrival="256.00" arrivalLane="143957229#2_1" arrivalPos="1518.61" arrivalSpeed="32.95" duration="87.00" routeLength="1957.75" waitingTime="0.00" waitingCount="0" stopTime="0.00" timeLoss="15.22" rerouteNo="1" devices="tripinfo_169 routing_169" vType="DEFAULT_VEHTYPE" speedFactor="1.23" vaporized=""/>
    <tripinfo id="63" depart="63.00" departLane="384311993#0_0" departPos="5.10" departSpeed="0.00" departDelay="0.00" arrival="260.00" arrivalLane="143957229#2_0" arrivalPos="1518.61" arrivalSpeed="22.54" duration="197.00" routeLength="2526.83" waitingTime="62.00" waitingCount="2" stopTime="0.00" timeLoss="90.26" rerouteNo="1" devices="tripinfo_63 routing_63" vType="DEFAULT_VEHTYPE" speedFactor="0.85" vaporized=""/>
    <tripinfo id="199" depart="199.00" departLane="24375222#1_0" departPos="5.10" departSpeed="0.00" departDelay="0.00" arrival="262.00" arrivalLane="13847053#2_0" arrivalPos="808.01" arrivalSpeed="30.70" duration="63.00" routeLength="1051.04" waitingTime="11.00" waitingCount="1" stopTime="0.00" timeLoss="29.35" rerouteNo="1" devices="tripinfo_199 routing_199" vType="DEFAULT_VEHTYPE" speedFactor="1.14" vaporized=""/>
    <tripinfo id="117" depart="117.00" departLane="24375222#0_0" departPos="5.10" departSpeed="0.00" departDelay="0.00" arrival="268.00" arrivalLane="170115771#0_1" arrivalPos="13.51" arrivalSpeed="15.51" duration="151.00" routeLength="2039.11" waitingTime="31.00" waitingCount="1" stopTime="0.00" timeLoss="57.28" rerouteNo="1" devices="tripinfo_117 routing_117" vType="DEFAULT_VEHTYPE" speedFactor="0.92" vaporized=""/>