<?xml version="1.0" encoding="UTF-8"?>

<!-- generated on 12/12/20 08:04:56 by Eclipse SUMO Version 1.6.0
<configuration xmlns:xsi="http://www.w3.org/2001/XMLSchema-instance" xsi:noNamespaceSchemaLocation="http://sumo.dlr.de/xsd/sumoConfiguration.xsd">

    <input>
        <net-file value="test.net.xml"/>
        <route-files value="trips.trips.xml"/>
        <additional-files value="map.poly.xml,light_control1.add.xml"/>
    </input>

    <output>
        <tripinfo-output value="tripinfo.xml"/>
    </output>

    <processing>
        <tls.actuated.show-detectors value="true"/>
    </processing>

    <traci_server>
        <remote-port value="51929"/>
    </traci_server>

</configuration>
-->

<tripinfos xmlns:xsi="http://www.w3.org/2001/XMLSchema-instance" xsi:noNamespaceSchemaLocation="http://sumo.dlr.de/xsd/tripinfo_file.xsd">
</tripinfos>
id="5" depart="5.00" departLane="29240869#0_0" departPos="5.10" departSpeed="0.00" departDelay="0.00" arrival="26.00" arrivalLane="-29047356#3_0" arrivalPos="71.95" arrivalSpeed="11.10" duration="21.00" routeLength="172.38" waitingTime="0.00" waitingCount="0" stopTime="0.00" timeLoss="4.90" rerouteNo="1" devices="tripinfo_5 routing_5" vType="DEFAULT_VEHTYPE" speedFactor="0.83" vaporized=""/>
    <tripinfo id="23" depart="23.00" departLane="29047128_0" departPos="5.10" departSpeed="0.00" departDelay="0.00" arrival="33.00" arrivalLane="29047128_0" arrivalPos="96.07" arrivalSpeed="13.30" duration="10.00" routeLength="90.97" waitingTime="0.00" waitingCount="0" stopTime="0.00" timeLoss="3.32" rerouteNo="1" devices="tripinfo_23 routing_23" vType="DEFAULT_VEHTYPE" speedFactor="1.02" vaporized=""/>
    <tripinfo id="1" depart="1.00" departLane="-239696920_0" departPos="5.10" departSpeed="0.00" departDelay="0.00" arrival="45.00" arrivalLane="170115770#0_2" arrivalPos="54.74" arrivalSpeed="9.60" duration="44.00" routeLength="388.70" waitingTime="0.00" waitingCount="0" stopTime="0.00" timeLoss="15.44" rerouteNo="1" devices="tripinfo_1 routing_1" vType="DEFAULT_VEHTYPE" speedFactor="0.94" vaporized=""/>
    <tripinfo id="2" depart="3.00" departLane="143955381#1_0" departPos="5.10" departSpeed="0.00" departDelay="1.00" arrival="68.00" arrivalLane="143955381#1_0" arrivalPos="1609.54" arrivalSpeed="27.23" duration="65.00" routeLength="1604.44" waitingTime="0.00" waitingCount="0" stopTime="0.00" timeLoss="7.39" rerouteNo="1" devices="tripinfo_2 routing_2" vType="DEFAULT_VEHTYPE" speedFactor="1.01" vaporized=""/>
    <tripinfo id="13" depart="13.00" departLane="384311993#0_0" departPos="5.10" departSpeed="0.00" departDelay="0.00" arrival="70.00" arrivalLane="170115771#4_2" arrivalPos="97.57" arrivalSpeed="27.89" duration="57.00" routeLength="1150.22" waitingTime="0.00" waitingCount="0" stopTime="0.00" timeLoss="16.32" rerouteNo="1" devices="tripinfo_13 routing_13" vType="DEFAULT_VEHTYPE" speedFactor="1.05" vaporized=""/>
    <tripinfo id="14" depart="16.00" departLane="384311993#0_0" departPos="5.10" departSpeed="0.00" departDelay="2.00" arrival="76.00" arrivalLane="29024142#2_0" arrivalPos="81.53" arrivalSpeed="14.72" duration="60.00" routeLength="1042.73" waitingTime="0.00" waitingCount="0" stopTime="0.00" timeLoss="16.28" rerouteNo="1" devices="tripinfo_14 routing_14" vType="DEFAULT_VEHTYPE" speedFactor="1.12" vaporized=""/>
    <tripinfo id="0" depart="0.00" departLane="143955381#1_0" departPos="5.10" departSpeed="0.00" departDelay="0.00" arrival="79.00" arrivalLane="29047361#0_0" arrivalPos="30.51" arrivalSpeed="14.48" duration="79.00" routeLength="1727.55" waitingTime="0.00" waitingCount="0" stopTime="0.00" timeLoss="14.07" rerouteNo="1" devices="tripinfo_0 routing_0" vType="DEFAULT_VEHTYPE" speedFactor="1.06" vaporized=""/>
    <tripinfo id="26" depart="26.00" departLane="29240871_0" departPos="5.10" departSpeed="0.00" departDelay="0.00" arrival="81.00" arrivalLane="29047361#1_0" arrivalPos="170.89" arrivalSpeed="11.35" duration="55.00" routeLength="488.88" waitingTime="0.00" waitingCount="0" stopTime="0.00" timeLoss="11.15" rerouteNo="1" devices="tripinfo_26 routing_26" vType="DEFAULT_VEHTYPE" speedFactor="0.89" vaporized=""/>
    <tripinfo id="37" depart="37.00" departLane="-29023952_0" departPos="5.10" departSpeed="0.00" departDelay="0.00" arrival="91.00" arrivalLane="13847053#2_2" arrivalPos="808.01" arrivalSpeed="31.48" duration="54.00" routeLength="1085.93" waitingTime="0.00" waitingCount="0" stopTime="0.00" timeLoss="13.85" rerouteNo="1" devices="tripinfo_37 routing_37" vType="DEFAULT_VEHTYPE" speedFactor="1.18" vaporized=""/>
    <tripinfo id="20" depart="20.00" departLane="29288480#0_0" departPos="5.10" departSpeed="0.00" departDelay="0.00" arrival="92.00" arrivalLane="-29240864_0" arrivalPos="171.21" arrivalSpeed="12.48" duration="72.00" routeLength="753.79" waitingTime="0.00" waitingCount="0" stopTime="0.00" timeLoss="11.20" rerouteNo="1" devices="tripinfo_20 routing_20" vType="DEFAULT_VEHTYPE" speedFactor="0.94" vaporized=""/>
    <tripinfo id="11" depart="14.00" departLane="24375222#0_0" departPos="5.10" departSpeed="0.00" departDelay="3.00" arrival="94.00" arrivalLane="-29288480#1_0" arrivalPos="33.88" arrivalSpeed="13.43" duration="80.00" routeLength="1687.22" waitingTime="0.00" waitingCount="0" stopTime="0.00" timeLoss="13.86" rerouteNo="1" devices="tripinfo_11 routing_11" vType="DEFAULT_VEHTYPE" speedFactor="1.03" vaporized=""/>
    <tripinfo id="32" depart="32.00" departLane="143955381#3_0" departPos="5.10" departSpeed="0.00" departDelay="0.00" arrival="96.00" arrivalLane="170115770#3_0" arrivalPos="432.91" arrivalSpeed="12.04" duration="64.00" routeLength="733.94" waitingTime="0.00" waitingCount="0" stopTime="0.00" timeLoss="12.19" rerouteNo="1" devices="tripinfo_32 routing_32" vType="DEFAULT_VEHTYPE" speedFactor="1.13" vaporized=""/>
    <tripinfo id="48" depart="48.00" departLane="-29240871_0" departPos="5.10" departSpeed="0.00" departDelay="0.00" arrival="99.00" arrivalLane="29047356#1_0" arrivalPos="34.95" arrivalSpeed="11.84" duration="51.00" routeLength="401.25" waitingTime="0.00" waitingCount="0" stopTime="0.00" timeLoss="22.84" rerouteNo="1" devices="tripinfo_48 routing_48" vType="DEFAULT_VEHTYPE" speedFactor="0.90" vaporized=""/>
    <tripinfo id="49" depart="49.00" departLane="29023952_0" departPos="5.10" departSpeed="0.00" departDelay="0.00" arrival="99.00" arrivalLane="13847053#1_2" arrivalPos="58.08" arrivalSpeed="15.60" duration="50.00" routeLength="368.58" waitingTime="4.00" waitingCount="1" stopTime="0.00" timeLoss="24.25" rerouteNo="1" devices="tripinfo_49 routing_49" vType="DEFAULT_VEHTYPE" speedFactor="1.03" vaporized=""/>
    <tripinfo id="65" depart="65.00" departLane="29024142#0_0" departPos="5.10" departSpeed="0.00" departDelay="0.00" arrival="107.00" arrivalLane="-29024148_0" arrivalPos="176.55" arrivalSpeed="14.99" duration="42.00" routeLength="494.49" waitingTime="0.00" waitingCount="0" stopTime="0.00" timeLoss="10.29" rerouteNo="1" devices="tripinfo_65 routing_65" vType="DEFAULT_VEHTYPE" speedFactor="1.17" vaporized=""/>
    <tripinfo id="6" depart="6.00" departLane="143955381#4_0" departPos="5.10" departSpeed="0.00" departDelay="0.00" arrival="109.00" arrivalLane="13847053#2_0" arrivalPos="808.01" arrivalSpeed="27.83" duration="103.00" routeLength="1248.73" waitingTime="23.00" waitingCount="1" stopTime="0.00" timeLoss="48.57" rerouteNo="1" devices="tripinfo_6 routing_6" vType="DEFAULT_VEHTYPE" speedFactor="1.05" vaporized=""/>
    <tripinfo id="15" depart="15.00" departLane="-239696920_0" departPos="5.10" departSpeed="0.00" departDelay="0.00" arrival="111.00" arrivalLane="13847053#2_0" arrivalPos="808.01" arrivalSpeed="26.58" duration="96.00" routeLength="1236.08" waitingTime="18.00" waitingCount="1" stopTime="0.00" timeLoss="43.54" rerouteNo="1" devices="tripinfo_15 routing_15" vType="DEFAULT_VEHTYPE" speedFactor="0.99" vaporized=""/>
    <tripinfo id="88" depart="88.00" departLane="29240869#0_0" departPos="5.10" departSpeed="0.00" departDelay="0.00" arrival="112.00" arrivalLane="143955383#3_0" arrivalPos="25.95" arrivalSpeed="13.09" duration="24.00" routeLength="174.75" waitingTime="0.00" waitingCount="0" stopTime="0.00" timeLoss="9.76" rerouteNo="1" devices="tripinfo_88 routing_88" vType="DEFAULT_VEHTYPE" speedFactor="1.02" vaporized=""/>
    <tripinfo id="17" depart="17.00" departLane="591497173_0" departPos="5.10" departSpeed="0.00" departDelay="0.00" arrival="116.00" arrivalLane="143957229#2_0" arrivalPos="1518.61" arrivalSpeed="24.71" duration="99.00" routeLength="1752.77" waitingTime="0.00" waitingCount="0" stopTime="0.00" timeLoss="18.35" rerouteNo="1" devices="tripinfo_17 routing_17" vType="DEFAULT_VEHTYPE" speedFactor="0.93" vaporized=""/>
    <tripinfo id="44" depart="44.00" departLane="384311993#0_0" departPos="5.10" departSpeed="0.00" departDelay="0.00" arrival="118.00" arrivalLane="-32109005_0" arrivalPos="72.94" arrivalSpeed="14.11" duration="74.00" routeLength="1238.73" waitingTime="0.00" waitingCount="0" stopTime="0.00" timeLoss="19.54" rerouteNo="1" devices="tripinfo_44 routing_44" vType="DEFAULT_VEHTYPE" speedFactor="1.02" vaporized=""/>
    <tripinfo id="94" depart="94.00" departLane="170115771#3_0" departPos="5.10" departSpeed="0.00" departDelay="0.00" arrival="118.00" arrivalLane="-29024142#1_0" arrivalPos="5.10" arrivalSpeed="12.50" duration="24.00" routeLength="259.49" waitingTime="0.00" waitingCount="0" stopTime="0.00" timeLoss="9.14" rerouteNo="1" devices="tripinfo_94 routing_94" vType="DEFAULT_VEHTYPE" speedFactor="0.96" vaporized=""/>
    <tripinfo id="27" depart="27.00" departLane="-29047356#3_0" departPos="5.10" departSpeed="0.00" departDelay="0.00" arrival="121.00" arrivalLane="143957229#2_0" arrivalPos="1518.61" arrivalSpeed="22.82" duration="94.00" routeLength="1707.50" waitingTime="0.00" waitingCount="0" stopTime="0.00" timeLoss="10.41" rerouteNo="1" devices="tripinfo_27 routing_27" vType="DEFAULT_VEHTYPE" speedFactor="0.83" vaporized=""/>
    <tripinfo id="22" depart="22.00" departLane="-29047356#1_0" departPos="5.10" departSpeed="0.00" departDelay="0.00" arrival="123.00" arrivalLane="13847053#2_0" arrivalPos="808.01" arrivalSpeed="31.20" duration="101.00" routeLength="1547.79" waitingTime="0.00" waitingCount="0" stopTime="0.00" timeLoss="35.67" rerouteNo="1" devices="tripinfo_22 routing_22" vType="DEFAULT_VEHTYPE" speedFactor="1.16" vaporized=""/>
    <tripinfo id="87" depart="96.00" departLane="-29024148_0" departPos="5.10" departSpeed="0.00" departDelay="9.00" arrival="125.00" arrivalLane="-29024324_0" arrivalPos="94.76" arrivalSpeed="13.96" duration="29.00" routeLength="294.64" waitingTime="0.00" waitingCount="0" stopTime="0.00" timeLoss="7.10" rerouteNo="1" devices="tripinfo_87 routing_87" vType="DEFAULT_VEHTYPE" speedFactor="1.04" vaporized=""/>
    <tripinfo id="100" depart="100.00" departLane="-591494101_0" departPos="5.10" departSpeed="0.00" departDelay="0.00" arrival="127.00" arrivalLane="29240869#1_0" arrivalPos="10.78" arrivalSpeed="8.52" duration="27.00" routeLength="160.58" waitingTime="3.00" waitingCount="1" stopTime="0.00" timeLoss="12.75" rerouteNo="1" devices="tripinfo_100 routing_100" vType="DEFAULT_VEHTYPE" speedFactor="0.98" vaporized=""/>
    <tripinfo id="70" depart="70.00" departLane="143955381#1_0" departPos="5.10" departSpeed="0.00" departDelay="0.00" arrival="136.00" arrivalLane="143955381#1_1" arrivalPos="1609.54" arrivalSpeed="26.58" duration="66.00" routeLength="1604.44" waitingTime="0.00" waitingCount="0" stopTime="0.00" timeLoss="8.41" rerouteNo="1" devices="tripinfo_70 routing_70" vType="DEFAULT_VEHTYPE" speedFactor="1.00" vaporized=""/>
    <tripinfo id="54" depart="56.00" departLane="143955381#1_0" departPos="5.10" departSpeed="0.00" departDelay="2.00" arrival="139.00" arrivalLane="29240871_0" arrivalPos="84.05" arrivalSpeed="13.72" duration="83.00" routeLength="1821.34" waitingTime="0.00" waitingCount="0" stopTime="0.00" timeLoss="13.43" rerouteNo="1" devices="tripinfo_54 routing_54" vType="DEFAULT_VEHTYPE" speedFactor="1.04" vaporized=""/>
    <tripinfo id="4" depart="4.00" departLane="-23747533#2_0" departPos="5.10" departSpeed="0.00" departDelay="0.00" arrival="140.00" arrivalLane="29047356#3_0" arrivalPos="71.95" arrivalSpeed="14.31" duration="136.00" routeLength="1507.94" waitingTime="0.00" waitingCount="0" stopTime="0.00" timeLoss="33.36" rerouteNo="1" devices="tripinfo_4 routing_4" vType="DEFAULT_VEHTYPE" speedFactor="1.03" vaporized=""/>
    <tripinfo id="21" depart="21.00" departLane="29024142#0_0" departPos="5.10" departSpeed="0.00" departDelay="0.00" arrival="141.00" arrivalLane="143957229#2_0" arrivalPos="1518.61" arrivalSpeed="25.81" duration="120.00" routeLength="2073.14" waitingTime="6.00" waitingCount="1" stopTime="0.00" timeLoss="26.26" rerouteNo="1" devices="tripinfo_21 routing_21" vType="DEFAULT_VEHTYPE" speedFactor="0.94" vaporized=""/>
    <tripinfo id="41" depart="41.00" departLane="143955381#1_0" departPos="5.10" departSpeed="0.00" departDelay="0.00" arrival="145.00" arrivalLane="29047356#3_0" arrivalPos="71.95" arrivalSpeed="12.83" duration="104.00" routeLength="1885.72" waitingTime="10.00" waitingCount="1" stopTime="0.00" timeLoss="28.21" rerouteNo="1" devices="tripinfo_41 routing_41" vType="DEFAULT_VEHTYPE" speedFactor="1.01" vaporized=""/>
    <tripinfo id="106" depart="106.00" departLane="29288480#0_0" departPos="5.10" departSpeed="0.00" departDelay="0.00" arrival="149.00" arrivalLane="-29288480#1_0" arrivalPos="33.88" arrivalSpeed="12.51" duration="43.00" routeLength="449.05" waitingTime="0.00" waitingCount="0" stopTime="0.00" timeLoss="9.88" rerouteNo="1" devices="tripinfo_106 routing_106" vType="DEFAULT_VEHTYPE" speedFactor="1.02" vaporized=""/>
    <tripinfo id="68" depart="68.00" departLane="24375222#0_0" departPos="5.10" departSpeed="0.00" departDelay="0.00" arrival="153.00" arrivalLane="619526004#0_0" arrivalPos="73.72" arrivalSpeed="13.80" duration="85.00" routeLength="1823.48" waitingTime="0.00" waitingCount="0" stopTime="0.00" timeLoss="16.24" rerouteNo="1" devices="tripinfo_68 routing_68" vType="DEFAULT_VEHTYPE" speedFactor="1.02" vaporized=""/>
    <tripinfo id="73" depart="73.00" departLane="-29240871_0" departPos="5.10" departSpeed="0.00" departDelay="0.00" arrival="155.00" arrivalLane="143957229#1_1" arrivalPos="72.05" arrivalSpeed="19.76" duration="82.00" routeLength="312.44" waitingTime="43.00" waitingCount="1" stopTime="0.00" timeLoss="60.80" rerouteNo="1" devices="tripinfo_73 routing_73" vType="DEFAULT_VEHTYPE" speedFactor="0.90" vaporized=""/>
    <tripinfo id="138" depart="140.00" departLane="143955383#0_0" departPos="5.10" departSpeed="0.00" departDelay="2.00" arrival="160.00" arrivalLane="116269371_0" arrivalPos="63.99" arrivalSpeed="14.61" duration="20.00" routeLength="183.53" waitingTime="0.00" waitingCount="0" stopTime="0.00" timeLoss="6.40" rerouteNo="1" devices="tripinfo_138 routing_138" vType="DEFAULT_VEHTYPE" speedFactor="1.10" vaporized=""/>
    <tripinfo id="113" depart="113.00" departLane="-29047356#3_0" departPos="5.10" departSpeed="0.00" departDelay="0.00" arrival="172.00" arrivalLane="29047361#1_0" arrivalPos="170.89" arrivalSpeed="14.10" duration="59.00" routeLength="393.78" waitingTime="15.00" waitingCount="1" stopTime="0.00" timeLoss="28.79" rerouteNo="1" devices="tripinfo_113 routing_113" vType="DEFAULT_VEHTYPE" speedFactor="1.02" vaporized=""/>
    <tripinfo id="79" depart="81.00" departLane="143955381#1_0" departPos="5.10" departSpeed="0.00" departDelay="2.00" arrival="174.00" arrivalLane="29047361#1_0" arrivalPos="170.89" arrivalSpeed="14.74" duration="93.00" routeLength="1912.77" waitingTime="0.00" waitingCount="0" stopTime="0.00" timeLoss="17.51" rerouteNo="1" devices="tripinfo_79 routing_79" vType="DEFAULT_VEHTYPE" speedFactor="1.08" vaporized=""/>
    <tripinfo id="57" depart="57.00" departLane="-23747533#2_0" departPos="5.10" departSpeed="0.00" departDelay="0.00" arrival="176.00" arrivalLane="-29024142#0_0" arrivalPos="113.28" arrivalSpeed="12.94" duration="119.00" routeLength="1042.92" waitingTime="15.00" waitingCount="2" stopTime="0.00" timeLoss="40.37" rerouteNo="1" devices="tripinfo_57 routing_57" vType="DEFAULT_VEHTYPE" speedFactor="1.00" vaporized=""/>
    <tripinfo id="96" depart="96.00" departLane="143955381#1_0" departPos="5.10" departSpeed="0.00" departDelay="0.00" arrival="176.00" arrivalLane="143955383#1_0" arrivalPos="4.66" arrivalSpeed="13.16" duration="80.00" routeLength="1747.28" waitingTime="0.00" waitingCount="0" stopTime="0.00" timeLoss="13.19" rerouteNo="1" devices="tripinfo_96 routing_96" vType="DEFAULT_VEHTYPE" speedFactor="0.98" vaporized=""/>
    <tripinfo id="75" depart="77.00" departLane="24375222#0_0" departPos="5.10" departSpeed="0.00" departDelay="2.00" arrival="180.00" arrivalLane="-29288480#0_0" arrivalPos="367.16" arrivalSpeed="13.81" duration="103.00" routeLength="1968.15" waitingTime="0.00" waitingCount="0" stopTime="0.00" timeLoss="15.14" rerouteNo="1" devices="tripinfo_75 routing_75" vType="DEFAULT_VEHTYPE" speedFactor="1.02" vaporized=""/>
    <tripinfo id="109" depart="109.00" departLane="-23747533#2_0" departPos="5.10" departSpeed="0.00" departDelay="0.00" arrival="180.00" arrivalLane="-619526004#0_0" arrivalPos="73.72" arrivalSpeed="12.41" duration="71.00" routeLength="686.16" waitingTime="0.00" waitingCount="0" stopTime="0.00" timeLoss="9.82" rerouteNo="1" devices="tripinfo_109 routing_109" vType="DEFAULT_VEHTYPE" speedFactor="0.98" vaporized=""/>
    <tripinfo id="125" depart="125.00" departLane="143957229#0_0" departPos="5.10" departSpeed="0.00" departDelay="0.00" arrival="182.00" arrivalLane="-143955383#3_0" arrivalPos="25.95" arrivalSpeed="4.80" duration="57.00" routeLength="235.83" waitingTime="28.00" waitingCount="1" stopTime="0.00" timeLoss="42.55" rerouteNo="1" devices="tripinfo_125 routing_125" vType="DEFAULT_VEHTYPE" speedFactor="1.07" vaporized=""/>
    <tripinfo id="63" depart="63.00" departLane="384311993#0_0" departPos="5.10" departSpeed="0.00" departDelay="0.00" arrival="184.00" arrivalLane="143957229#2_0" arrivalPos="1518.61" arrivalSpeed="23.49" duration="121.00" routeLength="2526.83" waitingTime="0.00" waitingCount="0" stopTime="0.00" timeLoss="14.08" rerouteNo="1" devices="tripinfo_63 routing_63" vType="DEFAULT_VEHTYPE" speedFactor="0.85" vaporized=""/>
    <tripinfo id="140" depart="142.00" departLane="29288480#0_0" departPos="5.10" departSpeed="0.00" departDelay="2.00" arrival="186.00" arrivalLane="-29288480#1_0" arrivalPos="33.88" arrivalSpeed="12.79" duration="44.00" routeLength="449.05" waitingTime="0.00" waitingCount="0" stopTime="0.00" timeLoss="13.01" rerouteNo="1" devices="tripinfo_140 routing_140" vType="DEFAULT_VEHTYPE" speedFactor="1.10" vaporized=""/>
    <tripinfo id="101" depart="101.00" departLane="143955381#1_0" departPos="5.10" departSpeed="0.00" departDelay="0.00" arrival="188.00" arrivalLane="-29047356#3_0" arrivalPos="71.95" arrivalSpeed="13.64" duration="87.00" routeLength="1789.66" waitingTime="0.00" waitingCount="0" stopTime="0.00" timeLoss="14.77" rerouteNo="1" devices="tripinfo_101 routing_101" vType="DEFAULT_VEHTYPE" speedFactor="1.01" vaporized=""/>
    <tripinfo id="72" depart="73.00" departLane="143955381#1_0" departPos="5.10" departSpeed="0.00" departDelay="1.00" arrival="194.00" arrivalLane="-29288480#3_0" arrivalPos="30.76" arrivalSpeed="12.66" duration="121.00" routeLength="1951.88" waitingTime="8.00" waitingCount="1" stopTime="0.00" timeLoss="44.42" rerouteNo="1" devices="tripinfo_72 routing_72" vType="DEFAULT_VEHTYPE" speedFactor="1.00" vaporized=""/>
    <tripinfo id="116" depart="120.00" departLane="143955381#1_0" departPos="5.10" departSpeed="0.00" departDelay="4.00" arrival="197.00" arrivalLane="143955381#1_0" arrivalPos="1609.54" arrivalSpeed="22.51" duration="77.00" routeLength="1604.44" waitingTime="0.00" waitingCount="0" stopTime="0.00" timeLoss="7.46" rerouteNo="1" devices="tripinfo_116 routing_116" vType="DEFAULT_VEHTYPE" speedFactor="0.83" vaporized=""/>
    <tripinfo id="129" depart="129.00" departLane="143957229#1_0" departPos="5.10" departSpeed="0.00" departDelay="0.00" arrival="197.00" arrivalLane="143957229#2_0" arrivalPos="1518.61" arrivalSpeed="25.45" duration="68.00" routeLength="1594.90" waitingTime="0.00" waitingCount="0" stopTime="0.00" timeLoss="7.72" rerouteNo="0" devices="tripinfo_129 routing_129" vType="DEFAULT_VEHTYPE" speedFactor="0.95" vaporized=""/>
    <tripinfo id="84" depart="84.00" departLane="24375222#0_0" departPos="5.10" departSpeed="0.00" departDelay="0.00" arrival="198.00" arrivalLane="239696920_0" arrivalPos="85.10" arrivalSpeed="5.38" duration="114.00" routeLength="1676.40" waitingTime="16.00" waitingCount="2" stopTime="0.00" timeLoss="36.53" rerouteNo="1" devices="tripinfo_84 routing_84" vType="DEFAULT_VEHTYPE" speedFactor="0.88" vaporized=""/>
    <tripinfo id="130" depart="130.00" departLane="143955381#1_0" departPos="5.10" departSpeed="0.00" departDelay="0.00" arrival="203.00" arrivalLane="143955381#1_0" arrivalPos="1609.54" arrivalSpeed="24.69" duration="73.00" routeLength="1604.44" waitingTime="0.00" waitingCount="0" stopTime="0.00" timeLoss="7.81" rerouteNo="1" devices="tripinfo_130 routing_130" vType="DEFAULT_VEHTYPE" speedFactor="0.89" vaporized=""/>
    <tripinfo id="45" depart="46.00" departLane="143955381#1_0" departPos="5.10" departSpeed="0.00" departDelay="1.00" arrival="204.00" arrivalLane="170115770#3_0" arrivalPos="432.91" arrivalSpeed="9.56" duration="158.00" routeLength="2441.25" waitingTime="12.00" waitingCount="1" stopTime="0.00" timeLoss="34.80" rerouteNo="1" devices="tripinfo_45 routing_45" vType="DEFAULT_VEHTYPE" speedFactor="0.97" vaporized=""/>
    <tripinfo id="7" depart="7.00" departLane="-23747533#2_0" departPos="5.10" departSpeed="0.00" departDelay="0.00" arrival="208.00" arrivalLane="-29024148_0" arrivalPos="176.55" arrivalSpeed="12.02" duration="201.00" routeLength="1267.71" waitingTime="63.00" waitingCount="1" stopTime="0.00" timeLoss="92.30" rerouteNo="1" devices="tripinfo_7 routing_7" vType="DEFAULT_VEHTYPE" speedFactor="0.89" vaporized=""/>
    <tripinfo id="137" depart="137.00" departLane="-32109005_0" departPos="5.10" departSpeed="0.00" departDelay="0.00" arrival="208.00" arrivalLane="143957229#1_1" arrivalPos="72.05" arrivalSpeed="19.94" duration="71.00" routeLength="413.68" waitingTime="23.00" waitingCount="2" stopTime="0.00" timeLoss="45.68" rerouteNo="1" devices="tripinfo_137 routing_137" vType="DEFAULT_VEHTYPE" speedFactor="0.87" vaporized=""/>
    <tripinfo id="51" depart="51.00" departLane="29024142#0_0" departPos="5.10" departSpeed="0.00" departDelay="0.00" arrival="209.00" arrivalLane="170115770#1_1" arrivalPos="69.55" arrivalSpeed="10.52" duration="158.00" routeLength="1061.56" waitingTime="42.00" waitingCount="3" stopTime="0.00" timeLoss="85.64" rerouteNo="1" devices="tripinfo_51 routing_51" vType="DEFAULT_VEHTYPE" speedFactor="0.96" vaporized=""/>
    <tripinfo id="36" depart="36.00" departLane="143955381#1_0" departPos="5.10" departSpeed="0.00" departDelay="0.00" arrival="211.00" arrivalLane="-29288480#0_0" arrivalPos="367.16" arrivalSpeed="12.74" duration="175.00" routeLength="2423.86" waitingTime="28.00" waitingCount="1" stopTime="0.00" timeLoss="56.97" rerouteNo="1" devices="tripinfo_36 routing_36" vType="DEFAULT_VEHTYPE" speedFactor="0.93" vaporized=""/>
    <tripinfo id="28" depart="28.00" departLane="-29047361#1_0" departPos="5.10" departSpeed="0.00" departDelay="0.00" arrival="213.00" arrivalLane="170115770#3_0" arrivalPos="432.91" arrivalSpeed="8.93" duration="185.00" routeLength="1127.80" waitingTime="61.00" waitingCount="1" stopTime="0.00" timeLoss="87.71" rerouteNo="1" devices="tripinfo_28 routing_28" vType="DEFAULT_VEHTYPE" speedFactor="0.87" vaporized=""/>
    <tripinfo id="43" depart="44.00" departLane="143955381#1_0" departPos="5.10" departSpeed="0.00" departDelay="1.00" arrival="213.00" arrivalLane="-29288480#0_0" arrivalPos="367.16" arrivalSpeed="12.69" duration="169.00" routeLength="2423.86" waitingTime="24.00" waitingCount="1" stopTime="0.00" timeLoss="58.33" rerouteNo="1" devices="tripinfo_43 routing_43" vType="DEFAULT_VEHTYPE" speedFactor="0.99" vaporized=""/>
    <tripinfo id="60" depart="62.00" departLane="143955381#1_0" departPos="5.10" departSpeed="0.00" departDelay="2.00" arrival="217.00" arrivalLane="170115770#3_0" arrivalPos="432.91" arrivalSpeed="8.79" duration="155.00" routeLength="2441.25" waitingTime="0.00" waitingCount="0" stopTime="0.00" timeLoss="17.67" rerouteNo="1" devices="tripinfo_60 routing_60" vType="DEFAULT_VEHTYPE" speedFactor="0.88" vaporized=""/>
    <tripinfo id="107" depart="107.00" departLane="-29047361#1_0" departPos="5.10" departSpeed="0.00" departDelay="0.00" arrival="219.00" arrivalLane="143957229#2_0" arrivalPos="1518.61" arrivalSpeed="26.65" duration="112.00" routeLength="1957.75" waitingTime="0.00" waitingCount="0" stopTime="0.00" timeLoss="20.23" rerouteNo="1" devices="tripinfo_107 routing_107" vType="DEFAULT_VEHTYPE" speedFactor="0.97" vaporized=""/>
    <tripinfo id="186" depart="186.00" departLane="29024324_0" departPos="5.10" departSpeed="0.00" departDelay="0.00" arrival="223.00" arrivalLane="29024148_0" arrivalPos="176.55" arrivalSpeed="8.26" duration="37.00" routeLength="294.57" waitingTime="0.00" waitingCount="0" stopTime="0.00" timeLoss="13.74" rerouteNo="1" devices="tripinfo_186 routing_186" vType="DEFAULT_VEHTYPE" speedFactor="0.97" vaporized=""/>
    <tripinfo id="9" depart="9.00" departLane="384311993#0_0" departPos="5.10" departSpeed="0.00" departDelay="0.00" arrival="226.00" arrivalLane="-29288480#0_0" arrivalPos="367.16" arrivalSpeed="10.67" duration="217.00" routeLength="1947.04" waitingTime="48.00" waitingCount="3" stopTime="0.00" timeLoss="96.32" rerouteNo="1" devices="tripinfo_9 routing_9" vType="DEFAULT_VEHTYPE" speedFactor="0.86" vaporized=""/>
    <tripinfo id="111" depart="111.00" departLane="143955381#1_0" departPos="5.10" departSpeed="0.00" departDelay="0.00" arrival="227.00" arrivalLane="24375222#1_1" arrivalPos="40.84" arrivalSpeed="14.39" duration="116.00" routeLength="2192.51" waitingTime="0.00" waitingCount="0" stopTime="0.00" timeLoss="27.14" rerouteNo="1" devices="tripinfo_111 routing_111" vType="DEFAULT_VEHTYPE" speedFactor="1.04" vaporized=""/>
    <tripinfo id="90" depart="90.00" departLane="143955381#0_0" departPos="5.10" departSpeed="0.00" departDelay="0.00" arrival="228.00" arrivalLane="-239696920_0" arrivalPos="85.10" arrivalSpeed="12.55" duration="138.00" routeLength="2260.09" waitingTime="0.00" waitingCount="0" stopTime="0.00" timeLoss="36.90" rerouteNo="1" devices="tripinfo_90 routing_90" vType="DEFAULT_VEHTYPE" speedFactor="0.97" vaporized=""/>
    <tripinfo id="110" depart="110.00" departLane="29047356#3_0" departPos="5.10" departSpeed="0.00" departDelay="0.00" arrival="228.00" arrivalLane="-29288480#0_0" arrivalPos="367.16" arrivalSpeed="13.48" duration="118.00" routeLength="995.27" waitingTime="10.00" waitingCount="1" stopTime="0.00" timeLoss="51.59" rerouteNo="1" devices="tripinfo_110 routing_110" vType="DEFAULT_VEHTYPE" speedFactor="1.00" vaporized=""/>
    <tripinfo id="161" depart="162.00" departLane="143955381#1_0" departPos="5.10" departSpeed="0.00" departDelay="1.00" arrival="228.00" arrivalLane="143955381#1_0" arrivalPos="1609.54" arrivalSpeed="26.75" duration="66.00" routeLength="1604.44" waitingTime="0.00" waitingCount="0" stopTime="0.00" timeLoss="7.85" rerouteNo="1" devices="tripinfo_161 routing_161" vType="DEFAULT_VEHTYPE" speedFactor="1.01" vaporized=""/>
    <tripinfo id="163" depart="165.00" departLane="143955381#1_0" departPos="5.10" departSpeed="0.00" departDelay="2.00" arrival="228.00" arrivalLane="143955381#1_1" arrivalPos="1609.54" arrivalSpeed="28.43" duration="63.00" routeLength="1604.44" waitingTime="0.00" waitingCount="0" stopTime="0.00" timeLoss="8.27" rerouteNo="1" devices="tripinfo_163 routing_163" vType="DEFAULT_VEHTYPE" speedFactor="1.07" vaporized=""/>
    <tripinfo id="180" depart="189.00" departLane="29024148_0" departPos="5.10" departSpeed="0.00" departDelay="9.00" arrival="228.00" arrivalLane="143957229#1_1" arrivalPos="72.05" arrivalSpeed="15.23" duration="39.00" routeLength="403.37" waitingTime="0.00" waitingCount="0" stopTime="0.00" timeLoss="19.33" rerouteNo="1" devices="tripinfo_180 routing_180" vType="DEFAULT_VEHTYPE" speedFactor="1.13" vaporized=""/>
    <tripinfo id="135" depart="135.00" departLane="-619526004#1_0" departPos="5.10" departSpeed="0.00" departDelay="0.00" arrival="229.00" arrivalLane="-29024324_0" arrivalPos="94.76" arrivalSpeed="12.15" duration="94.00" routeLength="714.04" waitingTime="9.00" waitingCount="2" stopTime="0.00" timeLoss="45.21" rerouteNo="1" devices="tripinfo_135 routing_135" vType="DEFAULT_VEHTYPE" speedFactor="0.96" vaporized=""/>
    <tripinfo id="81" depart="84.00" departLane="143955381#1_0" departPos="5.10" departSpeed="0.00" departDelay="3.00" arrival="231.00" arrivalLane="-29288480#0_0" arrivalPos="367.16" arrivalSpeed="13.27" duration="147.00" routeLength="2423.86" waitingTime="0.00" waitingCount="0" stopTime="0.00" timeLoss="38.77" rerouteNo="1" devices="tripinfo_81 routing_81" vType="DEFAULT_VEHTYPE" speedFactor="1.02" vaporized=""/>
    <tripinfo id="143" depart="143.00" departLane="29047361#0_0" departPos="5.10" departSpeed="0.00" departDelay="0.00" arrival="233.00" arrivalLane="239696920_0" arrivalPos="85.10" arrivalSpeed="15.55" duration="90.00" routeLength="875.09" waitingTime="0.00" waitingCount="0" stopTime="0.00" timeLoss="38.08" rerouteNo="1" devices="tripinfo_143 routing_143" vType="DEFAULT_VEHTYPE" speedFactor="1.18" vaporized=""/>